<preamble>

<basis_specs>
===============================================================================
Ti                   Z=  22    Mass=  47.867        Charge= 0.17977+309
Lmxo=2 Lmxkb= 2    BasisType=split      Semic=T
L=0  Nsemic=1  Cnfigmx=4
          i=1  nzeta=1  polorb=0  (3s)  (semicore shell)
            splnorm:   0.15000    
               vcte:    40.000    
               rinn:    2.4690    
               qcoe:    0.0000    
               qyuk:    0.0000    
               qwid:   0.10000E-01
                rcs:    2.7434    
            lambdas:    1.0000    
          i=2  nzeta=2  polorb=0  (4s)  (to be polarized non-perturbatively)
            splnorm:   0.15000    
               vcte:    40.000    
               rinn:    6.5149    
               qcoe:    0.0000    
               qyuk:    0.0000    
               qwid:   0.10000E-01
                rcs:    7.2388      5.5125    
            lambdas:    1.0000      1.0000    
L=1  Nsemic=1  Cnfigmx=4
          i=1  nzeta=1  polorb=0  (3p)  (semicore shell)
            splnorm:   0.15000    
               vcte:    40.000    
               rinn:    2.7544    
               qcoe:    0.0000    
               qyuk:    0.0000    
               qwid:   0.10000E-01
                rcs:    3.0574    
            lambdas:    1.0000    
          i=2  nzeta=1  polorb=0  (4p)  (non-perturbative polarization shell)
            splnorm:   0.15000    
               vcte:    40.000    
               rinn:    6.5214    
               qcoe:    0.0000    
               qyuk:    0.0000    
               qwid:   0.10000E-01
                rcs:    7.2388    
            lambdas:    1.0000    
L=2  Nsemic=0  Cnfigmx=3
          i=1  nzeta=2  polorb=0  (3d)
            splnorm:   0.15000    
               vcte:    40.000    
               rinn:    4.4125    
               qcoe:    0.0000    
               qyuk:    0.0000    
               qwid:   0.10000E-01
                rcs:    4.8978      3.3229    
            lambdas:    1.0000      1.0000    
-------------------------------------------------------------------------------
L=0  Nkbl=2  erefs: 0.17977+309 0.17977+309
L=1  Nkbl=2  erefs: 0.17977+309 0.17977+309
L=2  Nkbl=1  erefs: 0.17977+309
===============================================================================
</basis_specs>

<pseudopotential_header>
 Ti pb nrl pcec
 ONCVPSP-3.2017-10-31Hamann's oncvpsp                        
 3s 2.00  r= 1.36/3p 6.00  r= 1.31/3d 2.00  r= 1.66/                    3s:3p:3d:4s:
</pseudopotential_header>
</preamble>
Ti                            # Symbol
Ti                            # Label
   22                         # Atomic number
     12.0000000000                             # Valence charge
     47.8670000000        # Mass 
     177.050889328        # Self energy 
   2   7                      # Lmax for basis, no. of nl orbitals 
   2   6                      # Lmax for projectors, no. of nl KB projectors
# PAOs:__________________________
  0  3  1  0  2.000000   #orbital l, n, z, is_polarized, population
 500    0.5497758634857929E-02     2.743381558794107     # npts, delta, cutoff
     0.000000000000000        0.9515985844962648    
    0.5497758634857929E-02    0.9516722384927745    
    0.1099551726971586E-01    0.9519500788568256    
    0.1649327590457379E-01    0.9524129268897252    
    0.2199103453943172E-01    0.9530604106747702    
    0.2748879317428965E-01    0.9538920202972785    
    0.3298655180914758E-01    0.9549071024559695    
    0.3848431044400551E-01    0.9561048601292736    
    0.4398206907886344E-01    0.9574843529685721    
    0.4947982771372136E-01    0.9590444979372991    
    0.5497758634857929E-01    0.9607840700994664    
    0.6047534498343722E-01    0.9627017035310647    
    0.6597310361829516E-01    0.9647958923452655    
    0.7147086225315308E-01    0.9670649918276608    
    0.7696862088801101E-01    0.9695072196796385    
    0.8246637952286894E-01    0.9721206573687351    
    0.8796413815772687E-01    0.9749032515850601    
    0.9346189679258481E-01    0.9778528158029995    
    0.9895965542744273E-01    0.9809670319474395    
    0.1044574140623007        0.9842434521636830    
    0.1099551726971586        0.9876795006902379    
    0.1154529313320165        0.9912724758335735    
    0.1209506899668744        0.9950195520438664    
    0.1264484486017324        0.9989177820907094    
    0.1319462072365903         1.002964099337658    
    0.1374439658714482         1.007155320114430    
    0.1429417245063062         1.011488146185443    
    0.1484394831411641         1.015959167313358    
    0.1539372417760220         1.020564863916125    
    0.1594350004108800         1.025301609815989    
    0.1649327590457379         1.030165675078786    
    0.1704305176805958         1.035153228941773    
    0.1759282763154537         1.040260342828120    
    0.1814260349503117         1.045482993446083    
    0.1869237935851696         1.050817065970785    
    0.1924215522200275         1.056258357306419    
    0.1979193108548855         1.061802579426540    
    0.2034170694897434         1.067445362790048    
    0.2089148281246013         1.073182259830329    
    0.2144125867594592         1.079008748514882    
    0.2199103453943172         1.084920235972702    
    0.2254081040291751         1.090912062186493    
    0.2309058626640330         1.096979503746760    
    0.2364036212988910         1.103117777664627    
    0.2419013799337489         1.109322045240193    
    0.2473991385686068         1.115587415983049    
    0.2528968972034648         1.121908951581546    
    0.2583946558383227         1.128281669917229    
    0.2638924144731806         1.134700549120797    
    0.2693901731080385         1.141160531665797    
    0.2748879317428965         1.147656528496220    
    0.2803856903777544         1.154183423184038    
    0.2858834490126123         1.160736076112596    
    0.2913812076474703         1.167309328681774    
    0.2968789662823282         1.173898007530679    
    0.3023767249171861         1.180496928773578    
    0.3078744835520441         1.187100902244724    
    0.3133722421869020         1.193704735747640    
    0.3188700008217599         1.200303239304385    
    0.3243677594566178         1.206891229400287    
    0.3298655180914757         1.213463533219561    
    0.3353632767263337         1.220014992867198    
    0.3408610353611916         1.226540469572512    
    0.3463587939960496         1.233034847869695    
    0.3518565526309075         1.239493039750694    
    0.3573543112657654         1.245909988785761    
    0.3628520699006234         1.252280674207038    
    0.3683498285354813         1.258600114950502    
    0.3738475871703392         1.264863373651667    
    0.3793453458051971         1.271065560590470    
    0.3848431044400550         1.277201837580780    
    0.3903408630749130         1.283267421800061    
    0.3958386217097709         1.289257589554727    
    0.4013363803446289         1.295167679976889    
    0.4068341389794868         1.300993098648140    
    0.4123318976143447         1.306729321146250    
    0.4178296562492027         1.312371896510647    
    0.4233274148840606         1.317916450622696    
    0.4288251735189185         1.323358689496911    
    0.4343229321537764         1.328694402479346    
    0.4398206907886343         1.333919465349548    
    0.4453184494234923         1.339029843322582    
    0.4508162080583502         1.344021593947822    
    0.4563139666932081         1.348890869901280    
    0.4618117253280661         1.353633921668504    
    0.4673094839629240         1.358247100115174    
    0.4728072425977820         1.362726858942707    
    0.4783050012326399         1.367069757026408    
    0.4838027598674978         1.371272460633816    
    0.4893005185023557         1.375331745521138    
    0.4947982771372136         1.379244498905879    
    0.5002960357720716         1.383007721313891    
    0.5057937944069295         1.386618528299323    
    0.5112915530417874         1.390074152036190    
    0.5167893116766453         1.393371942780403    
    0.5222870703115033         1.396509370201388    
    0.5277848289463613         1.399484024582595    
    0.5332825875812192         1.402293617890386    
    0.5387803462160771         1.404935984711106    
    0.5442781048509350         1.407409083056201    
    0.5497758634857930         1.409710995035593    
    0.5552736221206509         1.411839927399662    
    0.5607713807555088         1.413794211950400    
    0.5662691393903667         1.415572305822547    
    0.5717668980252246         1.417172791635632    
    0.5772646566600826         1.418594377518175    
    0.5827624152949406         1.419835897005389    
    0.5882601739297985         1.420896308811935    
    0.5937579325646564         1.421774696481514    
    0.5992556911995143         1.422470267915221    
    0.6047534498343722         1.422982354780784    
    0.6102512084692302         1.423310411804931    
    0.6157489671040881         1.423454015951364    
    0.6212467257389460         1.423412865486924    
    0.6267444843738039         1.423186778938662    
    0.6322422430086618         1.422775693944756    
    0.6377400016435198         1.422179666002251    
    0.6432377602783778         1.421398867114754    
    0.6487355189132357         1.420433584343353    
    0.6542332775480936         1.419284218264125    
    0.6597310361829515         1.417951281335697    
    0.6652287948178095         1.416435396180365    
    0.6707265534526674         1.414737293782436    
    0.6762243120875253         1.412857811607486    
    0.6817220707223832         1.410797891646273    
    0.6872198293572411         1.408558578387116    
    0.6927175879920991         1.406141016720585    
    0.6982153466269571         1.403546449780401    
    0.7037131052618150         1.400776216724441    
    0.7092108638966729         1.397831750459749    
    0.7147086225315308         1.394714575315475    
    0.7202063811663888         1.391426304667701    
    0.7257041398012467         1.387968638520035    
    0.7312018984361046         1.384343361043814    
    0.7366996570709625         1.380552338081835    
    0.7421974157058204         1.376597514619407    
    0.7476951743406784         1.372480912226473    
    0.7531929329755364         1.368204626474537    
    0.7586906916103943         1.363770824332055    
    0.7641884502452522         1.359181741541866    
    0.7696862088801101         1.354439679984165    
    0.7751839675149681         1.349547008153988    
    0.7806817261498260         1.344506152508998    
    0.7861794847846839         1.339319593954453    
    0.7916772434195418         1.333989872379451    
    0.7971750020543997         1.328519580526725    
    0.8026727606892577         1.322911361337032    
    0.8081705193241157         1.317167905302042    
    0.8136682779589736         1.311291947827581    
    0.8191660365938315         1.305286266609863    
    0.8246637952286894         1.299153679027190    
    0.8301615538635473         1.292897039549532    
    0.8356593124984053         1.286519237168231    
    0.8411570711332632         1.280023192847986    
    0.8466548297681211         1.273411857003143    
    0.8521525884029790         1.266688207000197    
    0.8576503470378369         1.259855244688280    
    0.8631481056726950         1.252915993959290    
    0.8686458643075529         1.245873498339226    
    0.8741436229424108         1.238730818612135    
    0.8796413815772687         1.231491030477991    
    0.8851391402121266         1.224157222245667    
    0.8906368988469846         1.216732492562159    
    0.8961346574818425         1.209219948178929    
    0.9016324161167004         1.201622701756375    
    0.9071301747515583         1.193943869707065    
    0.9126279333864162         1.186186570078488    
    0.9181256920212743         1.178353920475852    
    0.9236234506561322         1.170449036025476    
    0.9291212092909901         1.162475027379110    
    0.9346189679258480         1.154434998759567    
    0.9401167265607059         1.146332046047849    
    0.9456144851955639         1.138169254912010    
    0.9511122438304218         1.129949698977776    
    0.9566100024652797         1.121676438041096    
    0.9621077611001376         1.113352516322460    
    0.9676055197349955         1.104980960763061    
    0.9731032783698536         1.096564779362547    
    0.9786010370047115         1.088106959558397    
    0.9840987956395694         1.079610466646514    
    0.9895965542744273         1.071078242243045    
    0.9950943129092852         1.062513202786933    
     1.000592071544143         1.053918238083190    
     1.006089830179001         1.045296209886373    
     1.011587588813859         1.036649950524133    
     1.017085347448717         1.027982261560399    
     1.022583106083575         1.019295912497970    
     1.028080864718433         1.010593639520150    
     1.033578623353291         1.001878144271106    
     1.039076381988149        0.9931520926746947    
     1.044574140623007        0.9844181137913368    
     1.050071899257865        0.9756787987128294    
     1.055569657892723        0.9669366994945920    
     1.061067416527580        0.9581943281253159    
     1.066565175162438        0.9494541555335690    
     1.072062933797296        0.9407186106312915    
     1.077560692432154        0.9319900793938963    
     1.083058451067012        0.9232709039768013    
     1.088556209701870        0.9145633818683235    
     1.094053968336728        0.9058697650786449    
     1.099551726971586        0.8971922593649514    
     1.105049485606444        0.8885330234924448    
     1.110547244241302        0.8798941685313800    
     1.116045002876160        0.8712777571899931    
     1.121542761511018        0.8626858031832957    
     1.127040520145876        0.8541202706378802    
     1.132538278780733        0.8455830735325867    
     1.138036037415591        0.8370760751753110    
     1.143533796050449        0.8286010877158740    
     1.149031554685307        0.8201598716951147    
     1.154529313320165        0.8117541356303697    
     1.160027071955023        0.8033855356373424    
     1.165524830589881        0.7950556750886740    
     1.171022589224739        0.7867661043092263    
     1.176520347859597        0.7785183203082965    
     1.182018106494455        0.7703137665489508    
     1.187515865129313        0.7621538327545687    
     1.193013623764171        0.7540398547528182    
     1.198511382399029        0.7459731143571888    
     1.204009141033886        0.7379548392862326    
     1.209506899668744        0.7299862031206765    
     1.215004658303602        0.7220683252985238    
     1.220502416938460        0.7142022711482138    
     1.226000175573318        0.7063890519599585    
     1.231497934208176        0.6986296250953616    
     1.236995692843034        0.6909248941352529    
     1.242493451477892        0.6832757090658610    
     1.247991210112750        0.6756828665032865    
     1.253488968747608        0.6681471099561972    
     1.258986727382466        0.6606691301269189    
     1.264484486017324        0.6532495652496036    
     1.269982244652182        0.6458890014645724    
     1.275480003287040        0.6385879732422957    
     1.280977761921898        0.6313469638232341    
     1.286475520556756        0.6241664057086332    
     1.291973279191613        0.6170466811973045    
     1.297471037826471        0.6099881229460249    
     1.302968796461329        0.6029910145512289    
     1.308466555096187        0.5960555911767323    
     1.313964313731045        0.5891820402523882    
     1.319462072365903        0.5823705020211906    
     1.324959831000761        0.5756210704575517    
     1.330457589635619        0.5689337942971902    
     1.335955348270477        0.5623086783056036    
     1.341453106905335        0.5557456827831500    
     1.346950865540193        0.5492447232110159    
     1.352448624175051        0.5428056710989001    
     1.357946382809909        0.5364283584031487    
     1.363444141444766        0.5301125835076970    
     1.368941900079624        0.5238581175688957    
     1.374439658714482        0.5176647114724403    
     1.379937417349340        0.5115321020306096    
     1.385435175984198        0.5054600169882095    
     1.390932934619056        0.4994481755503822    
     1.396430693253914        0.4934962876814848    
     1.401928451888772        0.4876040528272573    
     1.407426210523630        0.4817711606323735    
     1.412923969158488        0.4759972917312412    
     1.418421727793346        0.4702821185526033    
     1.423919486428204        0.4646253056795715    
     1.429417245063062        0.4590265102182798    
     1.434915003697919        0.4534853822040342    
     1.440412762332778        0.4480015650039413    
     1.445910520967636        0.4425746957052728    
     1.451408279602493        0.4372044054896088    
     1.456906038237351        0.4318903199940423    
     1.462403796872209        0.4266320596602621    
     1.467901555507067        0.4214292400717010    
     1.473399314141925        0.4162814722790997    
     1.478897072776783        0.4111883631148408    
     1.484394831411641        0.4061495154963555    
     1.489892590046499        0.4011645287189766    
     1.495390348681357        0.3962329987385166    
     1.500888107316215        0.3913545184438958    
     1.506385865951073        0.3865286779200979    
     1.511883624585931        0.3817550647017811    
     1.517381383220789        0.3770332640177853    
     1.522879141855646        0.3723628590267996    
     1.528376900490504        0.3677434310445206    
     1.533874659125362        0.3631745597625040    
     1.539372417760220        0.3586558234589348    
     1.544870176395078        0.3541867992016372    
     1.550367935029936        0.3497670630435207    
     1.555865693664794        0.3453961902106666    
     1.561363452299652        0.3410737552832779    
     1.566861210934510        0.3367993323698032    
     1.572358969569368        0.3325724952743366    
     1.577856728204226        0.3283928176574615    
     1.583354486839084        0.3242598731909259    
     1.588852245473942        0.3201732357061720    
     1.594350004108799        0.3161324793368978    
     1.599847762743657        0.3121371786559684    
     1.605345521378515        0.3081869088068805    
     1.610843280013373        0.3042812456299935    
     1.616341038648231        0.3004197657813181    
     1.621838797283089        0.2966020468506030    
     1.627336555917947        0.2928276674743321    
     1.632834314552805        0.2890962074363607    
     1.638332073187663        0.2854072477696751    
     1.643829831822521        0.2817603708556276    
     1.649327590457379        0.2781551605052138    
     1.654825349092237        0.2745912020834424    
     1.660323107727095        0.2710680825588981    
     1.665820866361953        0.2675853905940302    
     1.671318624996811        0.2641427166212396    
     1.676816383631669        0.2607396529148847    
     1.682314142266526        0.2573757936656723    
     1.687811900901384        0.2540507350579394    
     1.693309659536242        0.2507640752955079    
     1.698807418171100        0.2475154146887551    
     1.704305176805958        0.2443043557082382    
     1.709802935440816        0.2411305030305382    
     1.715300694075674        0.2379934636079044    
     1.720798452710532        0.2348928466946897    
     1.726296211345390        0.2318282638983559    
     1.731793969980248        0.2287993292227208    
     1.737291728615106        0.2258056591085963    
     1.742789487249964        0.2228468724691882    
     1.748287245884822        0.2199225907252773    
     1.753785004519679        0.2170324378375669    
     1.759282763154537        0.2141760403368319    
     1.764780521789395        0.2113530273518841    
     1.770278280424253        0.2085630306354457    
     1.775776039059111        0.2058056845879487    
     1.781273797693969        0.2030806262794611    
     1.786771556328827        0.2003874954696955    
     1.792269314963685        0.1977259346261969    
     1.797767073598543        0.1950955889407446    
     1.803264832233401        0.1924961063441136    
     1.808762590868259        0.1899271375191684    
     1.814260349503117        0.1873883359123888    
     1.819758108137975        0.1848793577438523    
     1.825255866772832        0.1823998620157886    
     1.830753625407691        0.1799495105197001    
     1.836251384042549        0.1775279678421259    
     1.841749142677406        0.1751349013690902    
     1.847246901312264        0.1727699812893044    
     1.852744659947122        0.1704328805961461    
     1.858242418581980        0.1681232750884751    
     1.863740177216838        0.1658408433703303    
     1.869237935851696        0.1635852668495433    
     1.874735694486554        0.1613562297353245    
     1.880233453121412        0.1591534190348469    
     1.885731211756270        0.1569765245488945    
     1.891228970391128        0.1548252388665751    
     1.896726729025986        0.1526992573591699    
     1.902224487660844        0.1505982781731385    
     1.907722246295702        0.1485220022223378    
     1.913220004930559        0.1464701331794489    
     1.918717763565417        0.1444423774666818    
     1.924215522200275        0.1424384442457766    
     1.929713280835133        0.1404580454073515    
     1.935211039469991        0.1385008955595881    
     1.940708798104849        0.1365667120163235    
     1.946206556739707        0.1346552147845623    
     1.951704315374565        0.1327661265514452    
     1.957202074009423        0.1308991726706882    
     1.962699832644281        0.1290540811485297    
     1.968197591279139        0.1272305826292112    
     1.973695349913997        0.1254284103800157    
     1.979193108548855        0.1236473002758888    
     1.984690867183712        0.1218869907836632    
     1.990188625818570        0.1201472229459155    
     1.995686384453428        0.1184277403644741    
     2.001184143088286        0.1167282891835979    
     2.006681901723144        0.1150486180728568    
     2.012179660358002        0.1133884782097251    
     2.017677418992860        0.1117476232619139    
     2.023175177627718        0.1101258093694414    
     2.028672936262576        0.1085227951265008    
     2.034170694897434        0.1069383415631091    
     2.039668453532292        0.1053722121265667    
     2.045166212167150        0.1038241726627365    
     2.050663970802008        0.1022939913971608    
     2.056161729436865        0.1007814389160611    
     2.061659488071724        0.9928628814718765E-01
     2.067157246706581        0.9780831434057079E-01
     2.072655005341439        0.9634729504913667E-01
     2.078152763976297        0.9490301010929035E-01
     2.083650522611155        0.9347524162139581E-01
     2.089148281246013        0.9206377393020455E-01
     2.094646039880871        0.9066839360521858E-01
     2.100143798515729        0.8928888942102117E-01
     2.105641557150587        0.8792505233760389E-01
     2.111139315785445        0.8657667548065121E-01
     2.116637074420303        0.8524355412183297E-01
     2.122134833055161        0.8392548565906165E-01
     2.127632591690019        0.8262226959680968E-01
     2.133130350324877        0.8133370752641732E-01
     2.138628108959734        0.8005960310643101E-01
     2.144125867594592        0.7879976204296474E-01
     2.149623626229451        0.7755399207009278E-01
     2.155121384864308        0.7632210293033967E-01
     2.160619143499166        0.7510390635518623E-01
     2.166116902134024        0.7389921604577326E-01
     2.171614660768882        0.7270784765318601E-01
     2.177112419403740        0.7152961875928329E-01
     2.182610178038598        0.7036434885755037E-01
     2.188107936673456        0.6921185933385329E-01
     2.193605695308314        0.6807197344669476E-01
     2.199103453943172        0.6694451631020477E-01
     2.204601212578030        0.6582931487340139E-01
     2.210098971212888        0.6472619790173792E-01
     2.215596729847745        0.6363499595837685E-01
     2.221094488482604        0.6255554138524924E-01
     2.226592247117461        0.6148766828526626E-01
     2.232090005752319        0.6043121250319490E-01
     2.237587764387177        0.5938601160769237E-01
     2.243085523022035        0.5835190487391932E-01
     2.248583281656893        0.5732873326568776E-01
     2.254081040291751        0.5631633940998276E-01
     2.259578798926609        0.5531456758802333E-01
     2.265076557561467        0.5432326371383040E-01
     2.270574316196325        0.5334227531191064E-01
     2.276072074831183        0.5237145150657618E-01
     2.281569833466041        0.5141064301498143E-01
     2.287067592100898        0.5045970210656248E-01
     2.292565350735757        0.4951848259497146E-01
     2.298063109370614        0.4858683982103454E-01
     2.303560868005472        0.4766463063616400E-01
     2.309058626640331        0.4675171338548000E-01
     2.314556385275188        0.4584794789042513E-01
     2.320054143910046        0.4495319543172941E-01
     2.325551902544904        0.4406731873244017E-01
     2.331049661179762        0.4319018194094079E-01
     2.336547419814620        0.4232165061415901E-01
     2.342045178449478        0.4146159170102875E-01
     2.347542937084336        0.4060987352595817E-01
     2.353040695719194        0.3976636577237429E-01
     2.358538454354052        0.3893093946637458E-01
     2.364036212988910        0.3810346696045955E-01
     2.369533971623768        0.3728382191730276E-01
     2.375031730258625        0.3647187929363595E-01
     2.380529488893484        0.3566751532421680E-01
     2.386027247528341        0.3487060750587983E-01
     2.391525006163199        0.3408103458168732E-01
     2.397022764798057        0.3329867652512946E-01
     2.402520523432915        0.3252341452443097E-01
     2.408018282067773        0.3175513096693793E-01
     2.413516040702631        0.3099370942357733E-01
     2.419013799337489        0.3023903463343354E-01
     2.424511557972347        0.2949099248835840E-01
     2.430009316607205        0.2874947001769616E-01
     2.435507075242063        0.2801435537308463E-01
     2.441004833876921        0.2728553781333248E-01
     2.446502592511778        0.2656290768940818E-01
     2.452000351146637        0.2584635642947536E-01
     2.457498109781494        0.2513577652403269E-01
     2.462995868416352        0.2443106151113454E-01
     2.468493627051210        0.2373210596169549E-01
     2.473991385686068        0.2303880546488645E-01
     2.479489144320926        0.2235105661361541E-01
     2.484986902955784        0.2166875699017137E-01
     2.490484661590642        0.2099180516944485E-01
     2.495982420225500        0.2032010116280221E-01
     2.501480178860358        0.1965354976283941E-01
     2.506977937495216        0.1899207098906152E-01
     2.512475696130074        0.1833561816084896E-01
     2.517973454764932        0.1768419866032734E-01
     2.523471213399790        0.1703789137829195E-01
     2.528968972034647        0.1639685732874373E-01
     2.534466730669505        0.1576134277309811E-01
     2.539964489304364        0.1513167595014306E-01
     2.545462247939221        0.1450825916440522E-01
     2.550960006574079        0.1389155797575517E-01
     2.556457765208937        0.1328208893177229E-01
     2.561955523843795        0.1268040691305646E-01
     2.567453282478653        0.1208709282326240E-01
     2.572951041113511        0.1150274208504840E-01
     2.578448799748369        0.1092795420285118E-01
     2.583946558383227        0.1036332351284396E-01
     2.589444317018085        0.9809431146399178E-02
     2.594942075652943        0.9266838173368687E-02
     2.600439834287801        0.8736079855523346E-02
     2.605937592922658        0.8217660920934735E-02
     2.611435351557517        0.7712051761425536E-02
     2.616933110192374        0.7219685453470284E-02
     2.622430868827232        0.6740955505457277E-02
     2.627928627462090        0.6276214239115040E-02
     2.633426386096948        0.5825771718875270E-02
     2.638924144731806        0.5389895149188424E-02
     2.644421903366664        0.4968808665610206E-02
     2.649919662001522        0.4562693450400382E-02
     2.655417420636380        0.4171688106911838E-02
     2.660915179271238        0.3795889228628817E-02
     2.666412937906096        0.3435352097486525E-02
     2.671910696540954        0.3090091440790005E-02
     2.677408455175811        0.2760082164312851E-02
     2.682906213810670        0.2445259957019677E-02
     2.688403972445527        0.2145521622815256E-02
     2.693901731080385        0.1860724922303470E-02
     2.699399489715243        0.1590687573172621E-02
     2.704897248350101        0.1335184797330876E-02
     2.710395006984959        0.1093944265871717E-02
     2.715892765619817        0.8666360920783056E-03
     2.721390524254675        0.6528525314929063E-03
     2.726888282889533        0.4520634048520903E-03
     2.732386041524391        0.2635025728844316E-03
     2.737883800159249        0.8576929126544240E-04
     2.743381558794107         0.000000000000000    
  0  4  1  0  2.000000   #orbital l, n, z, is_polarized, population
 500    0.1450652426675257E-01     7.238755609109535     # npts, delta, cutoff
     0.000000000000000        0.3770086024058155    
    0.1450652426675257E-01    0.3772001121321704    
    0.2901304853350515E-01    0.3777955948102734    