Executable      : siesta
Version         : 5.4.2
Architecture    : x86_64
Compiler version: GNU-14.3.0
Compiler flags  : -march=nocona -mtune=haswell -ftree-vectorize -fPIC -fstack-protector-strong -fno-plt -O2 -ffunction-sections -pipe -isystem <prefix>/include -I<prefix>/_build_env/include -fdebug-prefix-map=<prefix>/work=/usr/local/src/conda/siesta-5.4.2 -fdebug-prefix-map=<prefix>=/usr/local/src/conda-prefix -I<prefix>/lib -fallow-argument-mismatch -O3
Parallelisations: none
NetCDF support
NetCDF-4 support
Lua support
DFT-D3 support

Runtime information:
* Directory : /home/UAB/1673794/Baixades
* Running in serial mode.
>> Start of run:  29-MAY-2026  13:03:42

                           *********************** 
                           *  WELCOME TO SIESTA  * 
                           *********************** 

 NOTE: Siesta V5 introduces some new defaults for basis-set generation
 NOTE: which might lead to slightly different numerical results.
 NOTE: Please see the manual for full details and compatibility measures.


reinit: Reading from standard input
reinit: Dumping input in INPUT_TMP.20358
************************** Dump of input data file ****************************
SystemName       c-BN exp. latt.   # Descriptive name of the system
SystemLabel            c-BN           # Short name for naming files
# Output options
WriteCoorStep  .true.
WriteMullikenPop       1
# Species and atoms
NumberOfSpecies        3
NumberOfAtoms          3
%block ChemicalSpeciesLabel
  1  22  Ti
  2  40  Zr
  3  82  Pb
%endblock ChemicalSpeciesLabel
# Basis
PAO.EnergyShift       200 meV
PAO.BasisSize         DZP
LatticeConstant       3.615 Ang
%block LatticeVectors
 0.00000   0.500000  0.500000
 0.50000   0.000000  0.500000
 0.50000   0.500000  0.000000
%endblock LatticeVectors
KgridCutoff          10. Ang
xc.functional         GGA           # Exchange-correlation functional
xc.authors            PBE           # Exchange-correlation version
MeshCutoff           140. Ry        # Mesh cutoff. real space mesh
# SCF options
MaxSCFIterations       40           # Maximum number of SCF iter
DM.MixingWeight       0.1           # New DM amount for next SCF cycle
DM.Tolerance          1.d-4         # Tolerance in maximum difference
                                    # between input and output DM
DM.UseSaveDM          true          # to use continuation files
DM.NumberPulay         5
SolutionMethod        diagon        # OrderN or Diagon
ElectronicTemperature  25 meV       # Temp. for Fermi smearing
# Atomic coordinates
AtomicCoordinatesFormat     ScaledCartesian
%block AtomicCoordinatesAndAtomicSpecies
  0.000000000000    0.000000000000    0.000000000000  1
  0.250000000000    0.250000000000    0.250000000000  2
%endblock AtomicCoordinatesAndAtomicSpecies
# Calculation of the macroscopic polarization
%block PolarizationGrids
10  4   4
4   10  4
4   4   10
%endblock PolarizationGrids
************************** End of input data file *****************************

reinit: -----------------------------------------------------------------------
reinit: System Name: c-BN exp. latt.
reinit: -----------------------------------------------------------------------
reinit: System Label: c-BN
reinit: -----------------------------------------------------------------------

initatom: Reading input for the pseudopotentials and atomic orbitals ----------
Species number:   1 Atomic number:   22 Label: Ti
Species number:   2 Atomic number:   40 Label: Zr
Species number:   3 Atomic number:   82 Label: Pb

Ground state valence configuration (from tables):   4s02  4p00  3d02  4f00
Ground state valence configuration (from tables):   5s02  5p00  4d02  4f00
Ground state valence configuration (from tables):   6s02  6p02  6d00  5f00

---- Processing specs for species: Ti
Reading pseudopotential information in PSML from:
  Ti.psml
PSML file version: 1.1
Using libxc ids:  101 130
GGA--PBE XC_GGA_X_PBE--XC_GGA_C_PBE pb
PSML uuid: caed23e0-be41-11e7-4603-0bd897f88bea
Semicore shell(s) with  8 electrons included in the valence for Ti

---- Processing specs for species: Zr
Reading pseudopotential information in PSML from:
  Zr.psml
PSML file version: 1.1
Using libxc ids:  101 130
GGA--PBE XC_GGA_X_PBE--XC_GGA_C_PBE pb
PSML uuid: 855db780-be42-11e7-4bdf-8c7dadbbbec5
Semicore shell(s) with  8 electrons included in the valence for Zr

---- Processing specs for species: Pb
Reading pseudopotential information in PSML from:
  Pb.psml
PSML file version: 1.1
Using libxc ids:  101 130
GGA--PBE XC_GGA_X_PBE--XC_GGA_C_PBE pb
PSML uuid: 02ca7ab0-c73d-11ed-7328-fa0ea6bbcf0f
Semicore shell(s) with 10 electrons included in the valence for Pb

---- Pseudopotential check for Ti

Pseudized shells:
3s( 2.00) rc: 1.36
3p( 6.00) rc: 1.31
3d( 2.00) rc: 1.66
Valence configuration for ps generation: 3s:3p:3d:4s: Total charge:  12.000000
Semicore shell(s): 3s 3p
Fallback to non-perturbative polarization scheme for Ti
Please see the manual if this is not desired in principle

---- Pseudopotential check for Zr

Pseudized shells:
4s( 2.00) rc: 1.57
4p( 6.00) rc: 1.57
4d( 2.00) rc: 1.51
Valence configuration for ps generation: 4s:4p:4d:5s: Total charge:  12.000000
Semicore shell(s): 4s 4p
Fallback to non-perturbative polarization scheme for Zr
Please see the manual if this is not desired in principle

---- Pseudopotential check for Pb

Pseudized shells:
6s( 2.00) rc: 2.16
6p( 2.00) rc: 2.55
5d(10.00) rc: 2.11
5f( 0.00) rc: 2.11
Valence configuration for ps generation: 5d:6s:6p: Total charge:  14.000000
Semicore shell(s): 5d
Fallback to non-perturbative polarization scheme for Pb
Please see the manual if this is not desired in principle
For Ti, standard SIESTA heuristics set lmxkb to 3
 (one more than the basis l, including polarization orbitals).
Use PS.lmax or PS.KBprojectors blocks to override.
For Zr, standard SIESTA heuristics set lmxkb to 3
 (one more than the basis l, including polarization orbitals).
Use PS.lmax or PS.KBprojectors blocks to override.
For Pb, standard SIESTA heuristics set lmxkb to 3
 (one more than the basis l, including polarization orbitals).
Use PS.lmax or PS.KBprojectors blocks to override.
Ti pseudopotential only contains V_ls up to l=2 -- lmxkb reset.
Zr pseudopotential only contains V_ls up to l=2 -- lmxkb reset.

<basis_specs>
===============================================================================
Ti                   Z=  22    Mass=  47.867        Charge= 0.17977+309
Lmxo=2 Lmxkb= 2    BasisType=split      Semic=T
L=0  Nsemic=1  Cnfigmx=4
          i=1  nzeta=1  polorb=0  (3s)  (semicore shell)
            splnorm:   0.15000    
               vcte:    40.000    
               rinn:  -0.90000    
               qcoe:    0.0000    
               qyuk:    0.0000    
               qwid:   0.10000E-01
                rcs:    0.0000    
            lambdas:    1.0000    
          i=2  nzeta=2  polorb=0  (4s)  (to be polarized non-perturbatively)
            splnorm:   0.15000    
               vcte:    40.000    
               rinn:  -0.90000    
               qcoe:    0.0000    
               qyuk:    0.0000    
               qwid:   0.10000E-01
                rcs:    0.0000      0.0000    
            lambdas:    1.0000      1.0000    
L=1  Nsemic=1  Cnfigmx=4
          i=1  nzeta=1  polorb=0  (3p)  (semicore shell)
            splnorm:   0.15000    
               vcte:    40.000    
               rinn:  -0.90000    
               qcoe:    0.0000    
               qyuk:    0.0000    
               qwid:   0.10000E-01
                rcs:    0.0000    
            lambdas:    1.0000    
          i=2  nzeta=1  polorb=0  (4p)  (non-perturbative polarization shell)
            splnorm:   0.15000    
               vcte:    40.000    
               rinn:  -0.90000    
               qcoe:    0.0000    
               qyuk:    0.0000    
               qwid:   0.10000E-01
                rcs:    0.0000    
            lambdas:    1.0000    
L=2  Nsemic=0  Cnfigmx=3
          i=1  nzeta=2  polorb=0  (3d)
            splnorm:   0.15000    
               vcte:    40.000    
               rinn:  -0.90000    
               qcoe:    0.0000    
               qyuk:    0.0000    
               qwid:   0.10000E-01
                rcs:    0.0000      0.0000    
            lambdas:    1.0000      1.0000    
-------------------------------------------------------------------------------
L=0  Nkbl=2  erefs: 0.17977+309 0.17977+309
L=1  Nkbl=2  erefs: 0.17977+309 0.17977+309
L=2  Nkbl=1  erefs: 0.17977+309
===============================================================================
</basis_specs>

Using PAO.SplitTailNorm
atom: Called for Ti                    (Z =  22)
Maximum radius (at nrval) set to   50.00000 8518

read_vps: Pseudopotential generation method:
read_vps: ONCVPSP-3.Hamann's oncvpsp                        
Valence charge in pseudo generation:   12.00000

read_vps: Pseudopotential includes a core correction:
read_vps: Pseudo-core for xc-correction

xc_check: Exchange-correlation functional:
xc_check: GGA Perdew, Burke & Ernzerhof 1996
Got Vlocal (oncv-fit) from psml data
Choosing vlocal chloc cutoff:  3.029916
qtot up to nchloc:   12.00014688
atom: Maximum radius for chlocal:    3.02992
atom: Maximum radius for r*vlocal+2*Zval:    3.02992
Reading KB projs from Ti psml data
Using scalar-relativistic projectors in PSML file

PSML: Kleinman-Bylander projectors: 
   l= 0   rc=  1.375180   Ekb= 22.724697
   l= 0   rc=  1.375180   Ekb=  2.527278
   l= 1   rc=  1.326200   Ekb=  3.950805
   l= 1   rc=  1.327537   Ekb= -0.169333
   l= 2   rc=  1.683555   Ekb=-10.372181
   l= 2   rc=  1.683555   Ekb= -2.954901

PSML: Total number of  Kleinman-Bylander projectors:  18
atom: -------------------------------------------------------------------------

atom: SANKEY-TYPE ORBITALS:
atom: Selected multiple-zeta basis: split     

SPLIT: Orbitals with angular momentum L= 0

SPLIT: Basis orbitals for state 3s

SPLIT: PAO cut-off radius determined from an
SPLIT: energy shift=  0.014700 Ry
Split based on tail norm

   izeta = 1
                 lambda =    1.000000
                     rc =    2.743382
                 energy =   -4.587427
                kinetic =    2.295728
    potential(screened) =   -6.883155
       potential(ionic) =  -23.023113

SPLIT: Basis orbitals for state 4s

SPLIT: PAO cut-off radius determined from an
SPLIT: energy shift=  0.014700 Ry
Split based on tail norm

   izeta = 1
                 lambda =    1.000000
                     rc =    7.238756
                 energy =   -0.322629
                kinetic =    0.756972
    potential(screened) =   -1.079601
       potential(ionic) =   -8.771603

   izeta = 2
                 rmatch =    5.512495
              splitnorm =    0.150000
                 energy =   -0.177408
                kinetic =    1.330920
    potential(screened) =   -1.508328
       potential(ionic) =  -10.669173

SPLIT: Orbitals with angular momentum L= 1

SPLIT: Basis orbitals for state 3p

SPLIT: PAO cut-off radius determined from an
SPLIT: energy shift=  0.014700 Ry
Split based on tail norm

   izeta = 1
                 lambda =    1.000000
                     rc =    3.057399
                 energy =   -2.840011
                kinetic =    4.971050
    potential(screened) =   -7.811061
       potential(ionic) =  -23.491220

SPLIT: Basis orbitals for state 4p
SPLIT: Non-perturbative polarization orbs for state 4s
SPLIT: rc(1st zeta) (re)set to: 7.2388 (expansion factor: 1.0000)
Split based on tail norm

   izeta = 1
                 lambda =    1.000000
                     rc =    7.238756
                 energy =   -0.042704
                kinetic =    0.897225
    potential(screened) =   -0.939930
       potential(ionic) =   -7.669880

SPLIT: Orbitals with angular momentum L= 2

SPLIT: Basis orbitals for state 3d

SPLIT: PAO cut-off radius determined from an
SPLIT: energy shift=  0.014700 Ry
Split based on tail norm

   izeta = 1
                 lambda =    1.000000
                     rc =    4.897820
                 energy =   -0.296937
                kinetic =    6.611402
    potential(screened) =   -6.908339
       potential(ionic) =  -20.527744

   izeta = 2
                 rmatch =    3.322857
              splitnorm =    0.150000
                 energy =   -0.173610
                kinetic =    8.409725
    potential(screened) =   -8.583335
       potential(ionic) =  -23.480112
atom: Total number of Sankey-type orbitals: 19

atm_pop: Valence configuration (for local Pseudopot. screening):
 3s( 2.00) 4s( 2.00)                                                  
 3p( 6.00) 4p( 0.00)                                                  
 3d( 2.00)                                                            
Vna: chval, zval:   12.00000  12.00000

Vna:  Cut-off radius for the neutral-atom potential:   7.238756
comcore: Pseudo-core radius Rcore=  1.766828

atom: _________________________________________________________________________

<basis_specs>
===============================================================================
Zr                   Z=  40    Mass=  91.224        Charge= 0.17977+309
Lmxo=2 Lmxkb= 2    BasisType=split      Semic=T
L=0  Nsemic=1  Cnfigmx=5
          i=1  nzeta=1  polorb=0  (4s)  (semicore shell)
            splnorm:   0.15000    
               vcte:    40.000    
               rinn:  -0.90000    
               qcoe:    0.0000    
               qyuk:    0.0000    
               qwid:   0.10000E-01
                rcs:    0.0000    
            lambdas:    1.0000    
          i=2  nzeta=2  polorb=0  (5s)  (to be polarized non-perturbatively)
            splnorm:   0.15000    
               vcte:    40.000    
               rinn:  -0.90000    
               qcoe:    0.0000    
               qyuk:    0.0000    
               qwid:   0.10000E-01
                rcs:    0.0000      0.0000    
            lambdas:    1.0000      1.0000    
L=1  Nsemic=1  Cnfigmx=5
          i=1  nzeta=1  polorb=0  (4p)  (semicore shell)
            splnorm:   0.15000    
               vcte:    40.000    
               rinn:  -0.90000    
               qcoe:    0.0000    
               qyuk:    0.0000    
               qwid:   0.10000E-01
                rcs:    0.0000    
            lambdas:    1.0000    
          i=2  nzeta=1  polorb=0  (5p)  (non-perturbative polarization shell)
            splnorm:   0.15000    
               vcte:    40.000    
               rinn:  -0.90000    
               qcoe:    0.0000    
               qyuk:    0.0000    
               qwid:   0.10000E-01
                rcs:    0.0000    
            lambdas:    1.0000    
L=2  Nsemic=0  Cnfigmx=4
          i=1  nzeta=2  polorb=0  (4d)
            splnorm:   0.15000    
               vcte:    40.000    
               rinn:  -0.90000    
               qcoe:    0.0000    
               qyuk:    0.0000    
               qwid:   0.10000E-01
                rcs:    0.0000      0.0000    
            lambdas:    1.0000      1.0000    
-------------------------------------------------------------------------------
L=0  Nkbl=2  erefs: 0.17977+309 0.17977+309
L=1  Nkbl=2  erefs: 0.17977+309 0.17977+309
L=2  Nkbl=1  erefs: 0.17977+309
===============================================================================
</basis_specs>

Using PAO.SplitTailNorm
atom: Called for Zr                    (Z =  40)
Maximum radius (at nrval) set to   50.00000 8518

read_vps: Pseudopotential generation method:
read_vps: ONCVPSP-3.Hamann's oncvpsp                        
Valence charge in pseudo generation:   12.00000

read_vps: Pseudopotential includes a core correction:
read_vps: Pseudo-core for xc-correction

xc_check: Exchange-correlation functional:
xc_check: GGA Perdew, Burke & Ernzerhof 1996
Got Vlocal (oncv-fit) from psml data
Choosing vlocal chloc cutoff:  5.301264
qtot up to nchloc:   11.99990854
atom: Maximum radius for chlocal:    5.30126
atom: Maximum radius for r*vlocal+2*Zval:    5.30126
Reading KB projs from Zr psml data
Using scalar-relativistic projectors in PSML file

PSML: Kleinman-Bylander projectors: 
   l= 0   rc=  1.584930   Ekb= 21.243531
   l= 0   rc=  1.583336   Ekb=  1.797610
   l= 1   rc=  1.584930   Ekb= 11.699674
   l= 1   rc=  1.584930   Ekb=  1.500681
   l= 2   rc=  1.528534   Ekb=  3.062955
   l= 2   rc=  1.528534   Ekb=  1.006046

PSML: Total number of  Kleinman-Bylander projectors:  18
atom: -------------------------------------------------------------------------

atom: SANKEY-TYPE ORBITALS:
atom: Selected multiple-zeta basis: split     

SPLIT: Orbitals with angular momentum L= 0

SPLIT: Basis orbitals for state 4s

SPLIT: PAO cut-off radius determined from an
SPLIT: energy shift=  0.014700 Ry
Split based on tail norm

   izeta = 1
                 lambda =    1.000000
                     rc =    3.057399
                 energy =   -3.989579
                kinetic =    1.964188
    potential(screened) =   -5.953767
       potential(ionic) =  -18.785964

SPLIT: Basis orbitals for state 5s

SPLIT: PAO cut-off radius determined from an
SPLIT: energy shift=  0.014700 Ry
Split based on tail norm

   izeta = 1
                 lambda =    1.000000
                     rc =    7.504465
                 energy =   -0.316671
                kinetic =    0.746015
    potential(screened) =   -1.062686
       potential(ionic) =   -8.013541

   izeta = 2
                 rmatch =    5.766684
              splitnorm =    0.150000
                 energy =   -0.115225
                kinetic =    1.273017
    potential(screened) =   -1.388242
       potential(ionic) =   -9.582431

SPLIT: Orbitals with angular momentum L= 1

SPLIT: Basis orbitals for state 4p

SPLIT: PAO cut-off radius determined from an
SPLIT: energy shift=  0.014700 Ry
Split based on tail norm

   izeta = 1
                 lambda =    1.000000
                     rc =    3.497241
                 energy =   -2.369448
                kinetic =    3.125043
    potential(screened) =   -5.494491
       potential(ionic) =  -17.822722

SPLIT: Basis orbitals for state 5p
SPLIT: Non-perturbative polarization orbs for state 5s
SPLIT: rc(1st zeta) (re)set to: 7.5045 (expansion factor: 1.0000)
Split based on tail norm

   izeta = 1
                 lambda =    1.000000
                     rc =    7.504465
                 energy =   -0.040844
                kinetic =    0.816923
    potential(screened) =   -0.857767
       potential(ionic) =   -7.000030

SPLIT: Orbitals with angular momentum L= 2

SPLIT: Basis orbitals for state 4d

SPLIT: PAO cut-off radius determined from an
SPLIT: energy shift=  0.014700 Ry
Split based on tail norm

   izeta = 1
                 lambda =    1.000000
                     rc =    5.842271
                 energy =   -0.248110
                kinetic =    2.967378
    potential(screened) =   -3.215488
       potential(ionic) =  -13.243078

   izeta = 2
                 rmatch =    4.180541
              splitnorm =    0.150000
                 energy =   -0.137187
                kinetic =    3.955843
    potential(screened) =   -4.093031
       potential(ionic) =  -15.155454
atom: Total number of Sankey-type orbitals: 19

atm_pop: Valence configuration (for local Pseudopot. screening):
 4s( 2.00) 5s( 2.00)                                                  
 4p( 6.00) 5p( 0.00)                                                  
 4d( 2.00)                                                            
Vna: chval, zval:   12.00000  12.00000

Vna:  Cut-off radius for the neutral-atom potential:   7.504465
comcore: Pseudo-core radius Rcore=  2.643368

atom: _________________________________________________________________________

<basis_specs>
===============================================================================
Pb                   Z=  82    Mass=  207.20        Charge= 0.17977+309
Lmxo=2 Lmxkb= 3    BasisType=split      Semic=T
L=0  Nsemic=0  Cnfigmx=6
          i=1  nzeta=2  polorb=0  (6s)
            splnorm:   0.15000    
               vcte:    40.000    
               rinn:  -0.90000    
               qcoe:    0.0000    
               qyuk:    0.0000    
               qwid:   0.10000E-01
                rcs:    0.0000      0.0000    
            lambdas:    1.0000      1.0000    
L=1  Nsemic=0  Cnfigmx=6
          i=1  nzeta=2  polorb=0  (6p)  (to be polarized non-perturbatively)
            splnorm:   0.15000    
               vcte:    40.000    
               rinn:  -0.90000    
               qcoe:    0.0000    
               qyuk:    0.0000    
               qwid:   0.10000E-01
                rcs:    0.0000      0.0000    
            lambdas:    1.0000      1.0000    
L=2  Nsemic=1  Cnfigmx=6
          i=1  nzeta=1  polorb=0  (5d)  (semicore shell)
            splnorm:   0.15000    
               vcte:    40.000    
               rinn:  -0.90000    
               qcoe:    0.0000    
               qyuk:    0.0000    
               qwid:   0.10000E-01
                rcs:    0.0000    
            lambdas:    1.0000    
          i=2  nzeta=1  polorb=0  (6d)  (non-perturbative polarization shell)
            splnorm:   0.15000    
               vcte:    40.000    
               rinn:  -0.90000    
               qcoe:    0.0000    
               qyuk:    0.0000    
               qwid:   0.10000E-01
                rcs:    0.0000    
            lambdas:    1.0000    
-------------------------------------------------------------------------------
L=0  Nkbl=1  erefs: 0.17977+309
L=1  Nkbl=1  erefs: 0.17977+309
L=2  Nkbl=2  erefs: 0.17977+309 0.17977+309
L=3  Nkbl=1  erefs: 0.17977+309
===============================================================================
</basis_specs>

Using PAO.SplitTailNorm
atom: Called for Pb                    (Z =  82)
Maximum radius (at nrval) set to   50.00000 8518

read_vps: Pseudopotential generation method:
read_vps: ONCVPSP-4.Hamann's oncvpsp                        
Valence charge in pseudo generation:   14.00000

read_vps: Pseudopotential includes a core correction:
read_vps: Pseudo-core for xc-correction

xc_check: Exchange-correlation functional:
xc_check: GGA Perdew, Burke & Ernzerhof 1996
Got Vlocal (oncv-fit) from psml data
Choosing vlocal chloc cutoff:  5.523551
qtot up to nchloc:   14.00002938
atom: Maximum radius for chlocal:    5.52355
atom: Maximum radius for r*vlocal+2*Zval:    5.52355
Reading KB projs from Pb psml data
Using scalar-relativistic projectors in PSML file

PSML: Kleinman-Bylander projectors: 
   l= 0   rc=  2.173283   Ekb= 23.260430
   l= 0   rc=  2.173283   Ekb=  7.418094
   l= 0   rc=  2.173283   Ekb=  1.682355
   l= 1   rc=  2.173283   Ekb=  1.682355
   l= 1   rc=  0.000010   Ekb=  0.000000
   l= 2   rc=  0.000010   Ekb=  0.000000
   l= 2   rc=  2.570104   Ekb= 11.442339
   l= 3   rc=  2.570104   Ekb=  1.471636

PSML: Total number of  Kleinman-Bylander projectors:  26
atom: -------------------------------------------------------------------------

atom: SANKEY-TYPE ORBITALS:
atom: Selected multiple-zeta basis: split     

SPLIT: Orbitals with angular momentum L= 0

SPLIT: Basis orbitals for state 6s

SPLIT: PAO cut-off radius determined from an
SPLIT: energy shift=  0.014700 Ry
Split based on tail norm

   izeta = 1
                 lambda =    1.000000
                     rc =    5.232664
                 energy =   -0.868014
                kinetic =    0.606640
    potential(screened) =   -1.474654
       potential(ionic) =  -12.820433

   izeta = 2
                 rmatch =    3.858357
              splitnorm =    0.150000
                 energy =   -0.343423
                kinetic =    1.510639
    potential(screened) =   -1.854063
       potential(ionic) =  -14.047791

SPLIT: Orbitals with angular momentum L= 1

SPLIT: Basis orbitals for state 6p

SPLIT: PAO cut-off radius determined from an
SPLIT: energy shift=  0.014700 Ry
Split based on tail norm

   izeta = 1
                 lambda =    1.000000
                     rc =    7.224273
                 energy =   -0.240136
                kinetic =    0.620839
    potential(screened) =   -0.860976
       potential(ionic) =   -9.818441

   izeta = 2
                 rmatch =    5.452081
              splitnorm =    0.150000
                 energy =   -0.126893
                kinetic =    0.971925
    potential(screened) =   -1.098817
       potential(ionic) =  -11.301210

SPLIT: Orbitals with angular momentum L= 2

SPLIT: Basis orbitals for state 5d

SPLIT: PAO cut-off radius determined from an
SPLIT: energy shift=  0.014700 Ry
Split based on tail norm

   izeta = 1
                 lambda =    1.000000
                     rc =    3.518348
                 energy =   -1.540219
                kinetic =    6.872240
    potential(screened) =   -8.412460
       potential(ionic) =  -23.422704

SPLIT: Basis orbitals for state 6d
SPLIT: Non-perturbative polarization orbs for state 6p
SPLIT: rc(1st zeta) (re)set to: 7.2243 (expansion factor: 1.0000)
Split based on tail norm

   izeta = 1
                 lambda =    1.000000
                     rc =    7.224273
                 energy =    0.314656
                kinetic =    1.079901
    potential(screened) =   -0.765245
       potential(ionic) =   -7.586043
atom: Total number of Sankey-type orbitals: 18

atm_pop: Valence configuration (for local Pseudopot. screening):
 6s( 2.00)                                                            
 6p( 2.00)                                                            
 5d(10.00) 6d( 0.00)                                                  
Vna: chval, zval:   14.00000  14.00000

Vna:  Cut-off radius for the neutral-atom potential:   7.224273
comcore: Pseudo-core radius Rcore=  3.390185

atom: _________________________________________________________________________

prinput: Basis input 

PAO.BasisType split     

%block ChemicalSpeciesLabel
    1   22 Ti                      # Species index, atomic number, species label
    2   40 Zr                      # Species index, atomic number, species label
    3   82 Pb                      # Species index, atomic number, species label
%endblock ChemicalSpeciesLabel

%block PAO.Basis                 # Define Basis set
# WARNING: This information might be incomplete!
Ti                    5                    # Species label, number of l-shells
 n=3   0   1                         # n, l, Nzeta 
   2.743   
   1.000   
 n=4   0   2                         # n, l, Nzeta 
   7.239      5.512   
   1.000      1.000   
 n=3   1   1                         # n, l, Nzeta 
   3.057   
   1.000   
 n=4   1   1                         # n, l, Nzeta 
   7.239   
   1.000   
 n=3   2   2                         # n, l, Nzeta 
   4.898      3.323   
   1.000      1.000   
Zr                    5                    # Species label, number of l-shells
 n=4   0   1                         # n, l, Nzeta 
   3.057   
   1.000   
 n=5   0   2                         # n, l, Nzeta 
   7.504      5.767   
   1.000      1.000   
 n=4   1   1                         # n, l, Nzeta 
   3.497   
   1.000   
 n=5   1   1                         # n, l, Nzeta 
   7.504   
   1.000   
 n=4   2   2                         # n, l, Nzeta 
   5.842      4.181   
   1.000      1.000   
Pb                    4                    # Species label, number of l-shells
 n=6   0   2                         # n, l, Nzeta 
   5.233      3.858   
   1.000      1.000   
 n=6   1   2                         # n, l, Nzeta 
   7.224      5.452   
   1.000      1.000   
 n=5   2   1                         # n, l, Nzeta 
   3.518   
   1.000   
 n=6   2   1                         # n, l, Nzeta 
   7.224   
   1.000   
%endblock PAO.Basis

prinput: ----------------------------------------------------------------------

Dumping basis to NetCDF file Ti.ion.nc
Dumping basis to NetCDF file Zr.ion.nc
Dumping basis to NetCDF file Pb.ion.nc
coor:   Atomic-coordinates input format  =     Cartesian coordinates
coor:                                          (in units of alat)
coor: ERROR in AtomicCoordinatesAndAtomicSpecies block
Stopping Program from Node:    0
