Executable      : siesta
Version         : 5.4.2
Architecture    : x86_64
Compiler version: GNU-14.3.0
Compiler flags  : -march=nocona -mtune=haswell -ftree-vectorize -fPIC -fstack-protector-strong -fno-plt -O2 -ffunction-sections -pipe -isystem <prefix>/include -I<prefix>/_build_env/include -fdebug-prefix-map=<prefix>/work=/usr/local/src/conda/siesta-5.4.2 -fdebug-prefix-map=<prefix>=/usr/local/src/conda-prefix -I<prefix>/lib -fallow-argument-mismatch -O3
Parallelisations: none
NetCDF support
NetCDF-4 support
Lua support
DFT-D3 support

Runtime information:
* Directory : /home/UAB/1673794/Documents/run_pg
* Running in serial mode.
>> Start of run:   5-JUN-2026  12:34:29

                           *********************** 
                           *  WELCOME TO SIESTA  * 
                           *********************** 

 NOTE: Siesta V5 introduces some new defaults for basis-set generation
 NOTE: which might lead to slightly different numerical results.
 NOTE: Please see the manual for full details and compatibility measures.


reinit: Reading from file BaTiO3.fdf

reinit: -----------------------------------------------------------------------
reinit: System Name: 
reinit: -----------------------------------------------------------------------
reinit: System Label: siesta
reinit: -----------------------------------------------------------------------

initatom: Reading input for the pseudopotentials and atomic orbitals ----------
Species number:   1 Atomic number:   56 Label: Ba
Species number:   2 Atomic number:   22 Label: Ti
Species number:   3 Atomic number:    8 Label: O

Ground state valence configuration (from tables):   6s02  6p00  5d00  4f00
Ground state valence configuration (from tables):   4s02  4p00  3d02  4f00
Ground state valence configuration (from tables):   2s02  2p04  3d00  4f00

---- Processing specs for species: Ba
Reading pseudopotential information in PSML from:
  Ba.psml
PSML file version: 1.1
Using libxc ids:  101 130
GGA--PBE XC_GGA_X_PBE--XC_GGA_C_PBE pb
PSML uuid: dc4dcbf0-c73a-11ed-4fa9-74e79cfeb140
Semicore shell(s) with  8 electrons included in the valence for Ba

---- Processing specs for species: Ti
Reading pseudopotential information in PSML from:
  Ti.psml
PSML file version: 1.1
Using libxc ids:  101 130
GGA--PBE XC_GGA_X_PBE--XC_GGA_C_PBE pb
PSML uuid: caed23e0-be41-11e7-4603-0bd897f88bea
Semicore shell(s) with  8 electrons included in the valence for Ti

---- Processing specs for species: O
Reading pseudopotential information in PSML from:
  O.psml
PSML file version: 1.1
Using libxc ids:  101 130
GGA--PBE XC_GGA_X_PBE--XC_GGA_C_PBE pb
PSML uuid: 3cff85a0-be41-11e7-6c5c-1b1fe64d18ef

---- Pseudopotential check for Ba

Pseudized shells:
5s( 2.00) rc: 1.96
5p( 6.00) rc: 1.80
5d( 0.00) rc: 1.90
4f( 0.00) rc: 2.11
Valence configuration for ps generation: 5s:5p:6s: Total charge:  10.000000
Semicore shell(s): 5s 5p
Fallback to non-perturbative polarization scheme for Ba
Please see the manual if this is not desired in principle

---- Pseudopotential check for Ti

Pseudized shells:
3s( 2.00) rc: 1.36
3p( 6.00) rc: 1.31
3d( 2.00) rc: 1.66
Valence configuration for ps generation: 3s:3p:3d:4s: Total charge:  12.000000
Semicore shell(s): 3s 3p
Fallback to non-perturbative polarization scheme for Ti
Please see the manual if this is not desired in principle

---- Pseudopotential check for O 

Pseudized shells:
2s( 2.00) rc: 1.36
2p( 4.00) rc: 1.46
3d( 0.00) rc: 1.26
Valence configuration for ps generation: 2s:2p: Total charge:   6.000000
For Ba, standard SIESTA heuristics set lmxkb to 2
 (one more than the basis l, including polarization orbitals).
Use PS.lmax or PS.KBprojectors blocks to override.
For Ti, standard SIESTA heuristics set lmxkb to 3
 (one more than the basis l, including polarization orbitals).
Use PS.lmax or PS.KBprojectors blocks to override.
For O, standard SIESTA heuristics set lmxkb to 3
 (one more than the basis l, including polarization orbitals).
Use PS.lmax or PS.KBprojectors blocks to override.
Ti pseudopotential only contains V_ls up to l=2 -- lmxkb reset.
O pseudopotential only contains V_ls up to l=2 -- lmxkb reset.

<basis_specs>
===============================================================================
Ba                   Z=  56    Mass=  137.33        Charge= 0.17977+309
Lmxo=1 Lmxkb= 2    BasisType=split      Semic=T
L=0  Nsemic=1  Cnfigmx=6
          i=1  nzeta=1  polorb=0  (5s)  (semicore shell)
            splnorm:   0.15000    
               vcte:    40.000    
               rinn:  -0.90000    
               qcoe:    0.0000    
               qyuk:    0.0000    
               qwid:   0.10000E-01
                rcs:    0.0000    
            lambdas:    1.0000    
          i=2  nzeta=2  polorb=0  (6s)  (to be polarized non-perturbatively)
            splnorm:   0.15000    
               vcte:    40.000    
               rinn:  -0.90000    
               qcoe:    0.0000    
               qyuk:    0.0000    
               qwid:   0.10000E-01
                rcs:    0.0000      0.0000    
            lambdas:    1.0000      1.0000    
L=1  Nsemic=1  Cnfigmx=6
          i=1  nzeta=1  polorb=0  (5p)  (semicore shell)
            splnorm:   0.15000    
               vcte:    40.000    
               rinn:  -0.90000    
               qcoe:    0.0000    
               qyuk:    0.0000    
               qwid:   0.10000E-01
                rcs:    0.0000    
            lambdas:    1.0000    
          i=2  nzeta=1  polorb=0  (6p)  (non-perturbative polarization shell)
            splnorm:   0.15000    
               vcte:    40.000    
               rinn:  -0.90000    
               qcoe:    0.0000    
               qyuk:    0.0000    
               qwid:   0.10000E-01
                rcs:    0.0000    
            lambdas:    1.0000    
-------------------------------------------------------------------------------
L=0  Nkbl=2  erefs: 0.17977+309 0.17977+309
L=1  Nkbl=2  erefs: 0.17977+309 0.17977+309
L=2  Nkbl=1  erefs: 0.17977+309
===============================================================================
</basis_specs>

Using PAO.SplitTailNorm
atom: Called for Ba                    (Z =  56)
Maximum radius (at nrval) set to   50.00000 8518

read_vps: Pseudopotential generation method:
read_vps: ONCVPSP-4.Hamann's oncvpsp                        
Valence charge in pseudo generation:   10.00000

read_vps: Pseudopotential includes a core correction:
read_vps: Pseudo-core for xc-correction

xc_check: Exchange-correlation functional:
xc_check: Ceperley-Alder
xc_check: WARNING: Pseudopotential generated with GGA PBE functional
Got Vlocal (oncv-fit) from psml data
Choosing vlocal chloc cutoff:  4.771861
qtot up to nchloc:    9.99576283
atom: Maximum radius for chlocal:    4.77186
atom: Maximum radius for r*vlocal+2*Zval:    4.77186
Reading KB projs from Ba psml data
Using scalar-relativistic projectors in PSML file

PSML: Kleinman-Bylander projectors: 
   l= 0   rc=  1.973434   Ekb= 13.024145
   l= 0   rc=  1.973434   Ekb=  1.256320
   l= 1   rc=  0.000010   Ekb=  0.000000
   l= 1   rc=  0.000010   Ekb=  0.000000
   l= 2   rc=  0.000010   Ekb=  0.000000
   l= 2   rc=  1.813631   Ekb= 10.658512

PSML: Total number of  Kleinman-Bylander projectors:  18
atom: -------------------------------------------------------------------------

atom: SANKEY-TYPE ORBITALS:
atom: Selected multiple-zeta basis: split     

SPLIT: Orbitals with angular momentum L= 0

SPLIT: Basis orbitals for state 5s

SPLIT: PAO cut-off radius determined from an
SPLIT: energy shift=  0.010000 Ry
Split based on tail norm

   izeta = 1
                 lambda =    1.000000
                     rc =    3.992142
                 energy =   -2.448496
                kinetic =    1.163327
    potential(screened) =   -3.611823
       potential(ionic) =  -11.526662

SPLIT: Basis orbitals for state 6s

SPLIT: PAO cut-off radius determined from an
SPLIT: energy shift=  0.010000 Ry
Split based on tail norm

   izeta = 1
                 lambda =    1.000000
                     rc =    9.297586
                 energy =   -0.241891
                kinetic =    0.490706
    potential(screened) =   -0.732597
       potential(ionic) =   -5.196069

   izeta = 2
                 rmatch =    7.202602
              splitnorm =    0.150000
                 energy =   -0.041972
                kinetic =    0.836983
    potential(screened) =   -0.878955
       potential(ionic) =   -6.162595

SPLIT: Orbitals with angular momentum L= 1

SPLIT: Basis orbitals for state 5p

SPLIT: PAO cut-off radius determined from an
SPLIT: energy shift=  0.010000 Ry
Split based on tail norm

   izeta = 1
                 lambda =    1.000000
                     rc =    4.705381
                 energy =   -1.358471
                kinetic =    1.649670
    potential(screened) =   -3.008141
       potential(ionic) =  -10.495960

SPLIT: Basis orbitals for state 6p
SPLIT: Non-perturbative polarization orbs for state 6s
SPLIT: rc(1st zeta) (re)set to: 9.2976 (expansion factor: 1.0000)
Split based on tail norm

   izeta = 1
                 lambda =    1.000000
                     rc =    9.297586
                 energy =   -0.047901
                kinetic =    0.530160
    potential(screened) =   -0.578061
       potential(ionic) =   -4.502267
atom: Total number of Sankey-type orbitals:  9

atm_pop: Valence configuration (for local Pseudopot. screening):
 5s( 2.00) 6s( 2.00)                                                  
 5p( 6.00) 6p( 0.00)                                                  
Vna: chval, zval:   10.00000  10.00000

Vna:  Cut-off radius for the neutral-atom potential:   9.297586
comcore: Pseudo-core radius Rcore=  3.528949

atom: _________________________________________________________________________

<basis_specs>
===============================================================================
Ti                   Z=  22    Mass=  47.867        Charge= 0.17977+309
Lmxo=2 Lmxkb= 2    BasisType=split      Semic=T
L=0  Nsemic=1  Cnfigmx=4
          i=1  nzeta=1  polorb=0  (3s)  (semicore shell)
            splnorm:   0.15000    
               vcte:    40.000    
               rinn:  -0.90000    
               qcoe:    0.0000    
               qyuk:    0.0000    
               qwid:   0.10000E-01
                rcs:    0.0000    
            lambdas:    1.0000    
          i=2  nzeta=2  polorb=0  (4s)  (to be polarized non-perturbatively)
            splnorm:   0.15000    
               vcte:    40.000    
               rinn:  -0.90000    
               qcoe:    0.0000    
               qyuk:    0.0000    
               qwid:   0.10000E-01
                rcs:    0.0000      0.0000    
            lambdas:    1.0000      1.0000    
L=1  Nsemic=1  Cnfigmx=4
          i=1  nzeta=1  polorb=0  (3p)  (semicore shell)
            splnorm:   0.15000    
               vcte:    40.000    
               rinn:  -0.90000    
               qcoe:    0.0000    
               qyuk:    0.0000    
               qwid:   0.10000E-01
                rcs:    0.0000    
            lambdas:    1.0000    
          i=2  nzeta=1  polorb=0  (4p)  (non-perturbative polarization shell)
            splnorm:   0.15000    
               vcte:    40.000    
               rinn:  -0.90000    
               qcoe:    0.0000    
               qyuk:    0.0000    
               qwid:   0.10000E-01
                rcs:    0.0000    
            lambdas:    1.0000    
L=2  Nsemic=0  Cnfigmx=3
          i=1  nzeta=2  polorb=0  (3d)
            splnorm:   0.15000    
               vcte:    40.000    
               rinn:  -0.90000    
               qcoe:    0.0000    
               qyuk:    0.0000    
               qwid:   0.10000E-01
                rcs:    0.0000      0.0000    
            lambdas:    1.0000      1.0000    
-------------------------------------------------------------------------------
L=0  Nkbl=2  erefs: 0.17977+309 0.17977+309
L=1  Nkbl=2  erefs: 0.17977+309 0.17977+309
L=2  Nkbl=1  erefs: 0.17977+309
===============================================================================
</basis_specs>

Using PAO.SplitTailNorm
atom: Called for Ti                    (Z =  22)
Maximum radius (at nrval) set to   50.00000 8518

read_vps: Pseudopotential generation method:
read_vps: ONCVPSP-3.Hamann's oncvpsp                        
Valence charge in pseudo generation:   12.00000

read_vps: Pseudopotential includes a core correction:
read_vps: Pseudo-core for xc-correction

xc_check: Exchange-correlation functional:
xc_check: Ceperley-Alder
xc_check: WARNING: Pseudopotential generated with GGA PBE functional
Got Vlocal (oncv-fit) from psml data
Choosing vlocal chloc cutoff:  3.029916
qtot up to nchloc:   12.00014688
atom: Maximum radius for chlocal:    3.02992
atom: Maximum radius for r*vlocal+2*Zval:    3.02992
Reading KB projs from Ti psml data
Using scalar-relativistic projectors in PSML file

PSML: Kleinman-Bylander projectors: 
   l= 0   rc=  1.375180   Ekb= 22.724697
   l= 0   rc=  1.375180   Ekb=  2.527278
   l= 1   rc=  1.326200   Ekb=  3.950805
   l= 1   rc=  1.327537   Ekb= -0.169333
   l= 2   rc=  1.683555   Ekb=-10.372181
   l= 2   rc=  1.683555   Ekb= -2.954901

PSML: Total number of  Kleinman-Bylander projectors:  18
atom: -------------------------------------------------------------------------

atom: SANKEY-TYPE ORBITALS:
atom: Selected multiple-zeta basis: split     

SPLIT: Orbitals with angular momentum L= 0

SPLIT: Basis orbitals for state 3s

SPLIT: PAO cut-off radius determined from an
SPLIT: energy shift=  0.010000 Ry
Split based on tail norm

   izeta = 1
                 lambda =    1.000000
                     rc =    2.855749
                 energy =   -4.563359
                kinetic =    2.254144
    potential(screened) =   -6.817503
       potential(ionic) =  -22.949635

SPLIT: Basis orbitals for state 4s

SPLIT: PAO cut-off radius determined from an
SPLIT: energy shift=  0.010000 Ry
Split based on tail norm

   izeta = 1
                 lambda =    1.000000
                     rc =    7.549687
                 energy =   -0.341611
                kinetic =    0.752547
    potential(screened) =   -1.094158
       potential(ionic) =   -8.747086

   izeta = 2
                 rmatch =    5.657963
              splitnorm =    0.150000
                 energy =   -0.213339
                kinetic =    1.315805
    potential(screened) =   -1.529145
       potential(ionic) =  -10.630224

SPLIT: Orbitals with angular momentum L= 1

SPLIT: Basis orbitals for state 3p

SPLIT: PAO cut-off radius determined from an
SPLIT: energy shift=  0.010000 Ry
Split based on tail norm

   izeta = 1
                 lambda =    1.000000
                     rc =    3.201794
                 energy =   -2.822197
                kinetic =    4.888646
    potential(screened) =   -7.710843
       potential(ionic) =  -23.353419

SPLIT: Basis orbitals for state 4p
SPLIT: Non-perturbative polarization orbs for state 4s
SPLIT: rc(1st zeta) (re)set to: 7.5497 (expansion factor: 1.0000)
Split based on tail norm

   izeta = 1
                 lambda =    1.000000
                     rc =    7.549687
                 energy =   -0.064790
                kinetic =    0.859395
    potential(screened) =   -0.924185
       potential(ionic) =   -7.531422

SPLIT: Orbitals with angular momentum L= 2

SPLIT: Basis orbitals for state 3d

SPLIT: PAO cut-off radius determined from an
SPLIT: energy shift=  0.010000 Ry
Split based on tail norm

   izeta = 1
                 lambda =    1.000000
                     rc =    5.306578
                 energy =   -0.298111
                kinetic =    6.307507
    potential(screened) =   -6.605618
       potential(ionic) =  -19.982867

   izeta = 2
                 rmatch =    3.525412
              splitnorm =    0.150000
                 energy =   -0.194750
                kinetic =    7.966997
    potential(screened) =   -8.161747
       potential(ionic) =  -22.823573
atom: Total number of Sankey-type orbitals: 19

atm_pop: Valence configuration (for local Pseudopot. screening):
 3s( 2.00) 4s( 2.00)                                                  
 3p( 6.00) 4p( 0.00)                                                  
 3d( 2.00)                                                            
Vna: chval, zval:   12.00000  12.00000

Vna:  Cut-off radius for the neutral-atom potential:   7.549687
comcore: Pseudo-core radius Rcore=  1.766828

atom: _________________________________________________________________________

<basis_specs>
===============================================================================
O                    Z=   8    Mass=  15.999        Charge= 0.17977+309
Lmxo=2 Lmxkb= 2    BasisType=split      Semic=F
L=0  Nsemic=0  Cnfigmx=2
          i=1  nzeta=2  polorb=0  (2s)
            splnorm:   0.15000    
               vcte:    40.000    
               rinn:  -0.90000    
               qcoe:    0.0000    
               qyuk:    0.0000    
               qwid:   0.10000E-01
                rcs:    0.0000      0.0000    
            lambdas:    1.0000      1.0000    
L=1  Nsemic=0  Cnfigmx=2
          i=1  nzeta=2  polorb=1  (2p)  (to be polarized perturbatively)
            splnorm:   0.15000    
               vcte:    40.000    
               rinn:  -0.90000    
               qcoe:    0.0000    
               qyuk:    0.0000    
               qwid:   0.10000E-01
                rcs:    0.0000      0.0000    
            lambdas:    1.0000      1.0000    
L=2  Nsemic=0  Cnfigmx=3
          i=1  nzeta=0  polorb=0  (3d)  (perturbative polarization orbital) (from 2p)
-------------------------------------------------------------------------------
L=0  Nkbl=1  erefs: 0.17977+309
L=1  Nkbl=1  erefs: 0.17977+309
L=2  Nkbl=1  erefs: 0.17977+309
===============================================================================
</basis_specs>

Using PAO.SplitTailNorm
atom: Called for O                     (Z =   8)
Maximum radius (at nrval) set to   50.00000 8518

read_vps: Pseudopotential generation method:
read_vps: ONCVPSP-3.Hamann's oncvpsp                        
Valence charge in pseudo generation:    6.00000

read_vps: Pseudopotential includes a core correction:
read_vps: Pseudo-core for xc-correction

xc_check: Exchange-correlation functional:
xc_check: Ceperley-Alder
xc_check: WARNING: Pseudopotential generated with GGA PBE functional
Got Vlocal (oncv-fit) from psml data
Choosing vlocal chloc cutoff:  6.020499
qtot up to nchloc:    6.00001015
atom: Maximum radius for chlocal:    6.02050
atom: Maximum radius for r*vlocal+2*Zval:    6.02050
Reading KB projs from O psml data
Using scalar-relativistic projectors in PSML file

PSML: Kleinman-Bylander projectors: 
   l= 0   rc=  1.372412   Ekb= 12.113471
   l= 0   rc=  1.372412   Ekb=  1.648048
   l= 1   rc=  1.474132   Ekb= -9.434259
   l= 1   rc=  1.474132   Ekb= -2.298541
   l= 2   rc=  1.277664   Ekb= -2.663910

PSML: Total number of  Kleinman-Bylander projectors:  13
atom: -------------------------------------------------------------------------

atom: SANKEY-TYPE ORBITALS:
atom: Selected multiple-zeta basis: split     

SPLIT: Orbitals with angular momentum L= 0

SPLIT: Basis orbitals for state 2s

SPLIT: PAO cut-off radius determined from an
SPLIT: energy shift=  0.010000 Ry
Split based on tail norm

   izeta = 1
                 lambda =    1.000000
                     rc =    3.560943
                 energy =   -1.731027
                kinetic =    1.569048
    potential(screened) =   -3.300075
       potential(ionic) =  -11.198803

   izeta = 2
                 rmatch =    2.317582
              splitnorm =    0.150000
                 energy =   -1.324459
                kinetic =    2.685332
    potential(screened) =   -4.009791
       potential(ionic) =  -12.639937

SPLIT: Orbitals with angular momentum L= 1

SPLIT: Basis orbitals for state 2p

SPLIT: PAO cut-off radius determined from an
SPLIT: energy shift=  0.010000 Ry
Split based on tail norm

   izeta = 1
                 lambda =    1.000000
                     rc =    4.342846
                 energy =   -0.639326
                kinetic =    4.540424
    potential(screened) =   -5.179750
       potential(ionic) =  -12.795361

   izeta = 2
                 rmatch =    2.818736
              splitnorm =    0.150000
                 energy =   -0.444642
                kinetic =    6.363065
    potential(screened) =   -6.807707
       potential(ionic) =  -15.196141

POLgen: Perturbative polarization orbital with L=  2

POLgen: Polarization orbital for state 2p
Split based on tail norm

   izeta = 1
                     rc =    4.342846
                 energy =    2.165836
                kinetic =    4.041938
    potential(screened) =   -1.876102
       potential(ionic) =   -7.921587
atom: Total number of Sankey-type orbitals: 13

atm_pop: Valence configuration (for local Pseudopot. screening):
 2s( 2.00)                                                            
 2p( 4.00)                                                            
 3d( 0.00)                                                            
Vna: chval, zval:    6.00000   6.00000

Vna:  Cut-off radius for the neutral-atom potential:   4.342846
comcore: Pseudo-core radius Rcore=  1.354557

atom: _________________________________________________________________________

prinput: Basis input 

PAO.BasisType split     

%block ChemicalSpeciesLabel
    1   56 Ba                      # Species index, atomic number, species label
    2   22 Ti                      # Species index, atomic number, species label
    3    8 O                       # Species index, atomic number, species label
%endblock ChemicalSpeciesLabel

%block PAO.Basis                 # Define Basis set
# WARNING: This information might be incomplete!
Ba                    4                    # Species label, number of l-shells
 n=5   0   1                         # n, l, Nzeta 
   3.992   
   1.000   
 n=6   0   2                         # n, l, Nzeta 
   9.298      7.203   
   1.000      1.000   
 n=5   1   1                         # n, l, Nzeta 
   4.705   
   1.000   
 n=6   1   1                         # n, l, Nzeta 
   9.298   
   1.000   
Ti                    5                    # Species label, number of l-shells
 n=3   0   1                         # n, l, Nzeta 
   2.856   
   1.000   
 n=4   0   2                         # n, l, Nzeta 
   7.550      5.658   
   1.000      1.000   
 n=3   1   1                         # n, l, Nzeta 
   3.202   
   1.000   
 n=4   1   1                         # n, l, Nzeta 
   7.550   
   1.000   
 n=3   2   2                         # n, l, Nzeta 
   5.307      3.525   
   1.000      1.000   
O                     2                    # Species label, number of l-shells
 n=2   0   2                         # n, l, Nzeta 
   3.561      2.318   
   1.000      1.000   
 n=2   1   2 P   1                   # n, l, Nzeta, Polarization, NzetaPol
   4.343      2.819   
   1.000      1.000   
%endblock PAO.Basis

prinput: ----------------------------------------------------------------------

Dumping basis to NetCDF file Ba.ion.nc
Dumping basis to NetCDF file Ti.ion.nc
Dumping basis to NetCDF file O.ion.nc
coor:   Atomic-coordinates input format  =     Cartesian coordinates
coor:                                          (in Angstroms)

siesta: Atomic coordinates (Bohr) and species
siesta:      0.00000   0.00000  10.83011  1        1
siesta:      0.00000   5.40952   5.39651  1        2
siesta:      3.76371   0.00000   5.23252  2        3
siesta:      3.76371   5.40952  10.66612  2        4
siesta:      3.76371   2.63484   2.88102  3        5
siesta:      3.76371   8.18421   2.88102  3        6
siesta:      3.76371   8.04436   8.31462  3        7
siesta:      3.76371   2.77469   8.31462  3        8
siesta:      0.00000   0.00000   5.56179  3        9
siesta:      0.00000   5.40952   0.12818  3       10

siesta: System type = bulk      

initatomlists: Number of atoms, orbitals, and projectors:     10   134   150

siesta: ******************** Simulation parameters ****************************
siesta:
siesta: The following are some of the parameters of the simulation.
siesta: A complete list of the parameters used, including default values,
siesta: can be found in file out.fdf
siesta:
redata: Spin configuration                          = none
redata: Number of spin components                   = 1
redata: Time-Reversal Symmetry                      = T
redata: Spin spiral                                 = F
redata: Long output                                 =   F
redata: Number of Atomic Species                    =        3
redata: Charge density info will appear in .RHO file
redata: Write Mulliken charges (when)               = none
redata: Write Mulliken Pop.                         = NO
redata: Write Hirshfeld charges (when)              = none
redata: Write Voronoi charges (when)                = none
redata: Write spin charge (when)                    = none
redata: Matel table size (NRTAB)                    =     1024
redata: Mesh Cutoff                                 =   300.0000 Ry
redata: Net charge of the system                    =     0.0000 |e|
redata: Min. number of SCF Iter                     =        0
redata: Max. number of SCF Iter                     =     1000
redata: SCF convergence failure will abort job
redata: SCF mix quantity                            = Hamiltonian
redata: Mix DM or H after convergence               =   F
redata: Recompute H after scf cycle                 =   F
redata: Mix DM in first SCF step                    =   T
redata: Write Pulay info on disk                    =   F
redata: New DM Occupancy tolerance                  = 0.000000000001
redata: No kicks to SCF
redata: DM Mixing Weight for Kicks                  =     0.5000
redata: Require Harris convergence for SCF          =   F
redata: Harris energy tolerance for SCF             =     0.000100 eV
redata: Require DM convergence for SCF              =   T
redata: DM tolerance for SCF                        =     0.000100
redata: Require EDM convergence for SCF             =   F
redata: EDM tolerance for SCF                       =     0.001000 eV
redata: Require H convergence for SCF               =   T
redata: Hamiltonian tolerance for SCF               =     0.001000 eV
redata: Require (free) Energy convergence for SCF   =   F
redata: (free) Energy tolerance for SCF             =     0.000100 eV
redata: Using DFT-D3 dispersion                     =   F
redata: Using Saved Data (generic)                  =   F
redata: Use continuation files for DM               =   T
redata: Neglect nonoverlap interactions             =   F
redata: Method of Calculation                       = Diagonalization
redata: Electronic Temperature                      =   300.0000 K
redata: Fix the spin of the system                  =   F
redata: Max. number of TDED Iter                    =        1
redata: Number of TDED substeps                     =        3
redata: Dynamics option                             = Single-point calculation
mix.SCF: Pulay mixing                            = Pulay
mix.SCF:    Variant                              = stable
mix.SCF:    History steps                        = 2
mix.SCF:    Linear mixing weight                 =     0.250000
mix.SCF:    Mixing weight                        =     0.250000
mix.SCF:    SVD condition                        = 0.1000E-07
redata: Save all siesta data in one NC              =   F
redata: ***********************************************************************

%block SCF.Mixers
  Pulay
%endblock SCF.Mixers

%block SCF.Mixer.Pulay
  # Mixing method
  method pulay
  variant stable

  # Mixing options
  weight 0.2500
  weight.linear 0.2500
  history 2
%endblock SCF.Mixer.Pulay

DM_history_depth set to one: no extrapolation allowed by default for geometry relaxation
Size of DM history Fstack: 1
Total number of electrons:    80.000000
Total ionic charge:    80.000000

siesta: k-grid: Number of k-points = 1
siesta: k-point is Gamma-only

diag: Algorithm                                     = D&C
diag: Used triangular part                          = Lower
diag: Absolute tolerance                            =  0.100E-15
diag: Orthogonalization factor                      =  0.100E-05
diag: Memory factor                                 =  1.0000

superc: Internal auxiliary supercell:     5 x     5 x     5  =     125
superc: Number of atoms, orbitals, and projectors:   1250  16750  18750


ts: **************************************************************
ts: Save H and S matrices                           =    F
ts: Save TSHS files in MD/FC simulation             =    F
ts: Save DM and EDM matrices                        =    F
ts: Only save the overlap matrix S                  =    F
ts: **************************************************************

************************ Begin: TS CHECKS AND WARNINGS ************************
************************ End: TS CHECKS AND WARNINGS **************************


                     ====================================
                        Single-point calculation
                     ====================================

superc: Internal auxiliary supercell:     5 x     5 x     5  =     125
superc: Number of atoms, orbitals, and projectors:   1250  16750  18750

outcell: Unit cell vectors (Ang):
        3.983334    0.000000    0.000000
        0.000000    5.725190    0.000000
        0.000000    0.000000    5.750679

outcell: Cell vector modules (Ang)   :    3.983334    5.725190    5.750679
outcell: Cell angles (23,13,12) (deg):     90.0000     90.0000     90.0000
outcell: Cell volume (Ang**3)        :    131.1462
<dSpData1D:S at geom step 0
  <sparsity:sparsity for geom step 0
    nrows_g=134 nrows=134 sparsity=7.0975 nnzs=127442, refcount: 7>
  <dData1D:(new from dSpData1D) n=127442, refcount: 1>
refcount: 1>
new_DM -- step:     1
Initializing Density Matrix...

Attempting to read DM from file... Failed...
DM filled with atomic data:
<dSpData2D:DM initialized from atoms
  <sparsity:sparsity for geom step 0
    nrows_g=134 nrows=134 sparsity=7.0975 nnzs=127442, refcount: 8>
  <dData2D:DM n=127442 m=1, refcount: 1>
refcount: 1>
No. of atoms with KB's overlaping orbs in proc 0. Max # of overlaps:     111     274

InitMesh: MESH = 48 x 60 x 60 = 172800
InitMesh: Mesh cutoff (required, used) =   300.000   300.861 Ry
New grid distribution [1]: sub = 2

stepf: Fermi-Dirac step function

siesta: Program's energy decomposition (eV):
siesta: Ebs     =     -1861.195376
siesta: Eions   =     11173.991623
siesta: Ena     =      1926.354633
siesta: Ekin    =      3581.609593
siesta: Enl     =      -359.069497
siesta: Eso     =         0.000000
siesta: Edftu   =         0.000000
siesta: DEna    =       -66.064367
siesta: DUscf   =        50.150109
siesta: DUext   =         0.000000
siesta: Ex      =     -1381.874788
siesta: Ec      =      -157.157070
siesta: Exc     =     -1539.031858
siesta: EbV     =         0.000000
siesta: eta*DQ  =         0.000000
siesta: Emadel  =         0.000000
siesta: Emeta   =         0.000000
siesta: Emolmec =         0.000000
siesta: Ekinion =         0.000000
siesta: Eharris =     -7526.779070
siesta: Etot    =     -7580.043010
siesta: FreeEng =     -7580.043010

        iscf     Eharris(eV)        E_KS(eV)     FreeEng(eV)     dDmax    Ef(eV) dHmax(eV)
   scf:    1    -7526.779070    -7580.043010    -7580.043010 45.371090 -6.799859 17.113010
timer: Routine,Calls,Time,% = IterSCF        1       0.797  11.24
   scf:    2    -7618.681515    -7606.234765    -7606.234765  0.629683 -7.013256  4.202508
   scf:    3    -7605.780883    -7607.167799    -7607.167799  1.003642 -7.849508  1.582337
   scf:    4    -7607.491581    -7607.608568    -7607.608568  0.321367 -7.518732  1.088100
   scf:    5    -7607.716804    -7607.672230    -7607.672230  0.365855 -7.577219  0.767611
   scf:    6    -7607.721988    -7607.698152    -7607.698152  0.438623 -7.549830  0.430644
   scf:    7    -7607.717251    -7607.708902    -7607.708902  0.415593 -7.901678  0.121500
   scf:    8    -7607.709854    -7607.709554    -7607.709554  0.045757 -7.878988  0.101864
   scf:    9    -7607.710323    -7607.709981    -7607.709981  0.050356 -7.871264  0.070371
   scf:   10    -7607.710447    -7607.710238    -7607.710238  0.050472 -7.857218  0.042238
   scf:   11    -7607.710396    -7607.710335    -7607.710335  0.029112 -7.853473  0.024368
   scf:   12    -7607.710385    -7607.710367    -7607.710367  0.013325 -7.848969  0.017765
   scf:   13    -7607.710394    -7607.710382    -7607.710382  0.009173 -7.847770  0.012423
   scf:   14    -7607.710400    -7607.710392    -7607.710392  0.009518 -7.845181  0.007620
   scf:   15    -7607.710399    -7607.710396    -7607.710396  0.006828 -7.844173  0.003887
   scf:   16    -7607.710398    -7607.710397    -7607.710397  0.002761 -7.843171  0.002729
   scf:   17    -7607.710398    -7607.710398    -7607.710398  0.001545 -7.842999  0.001925
   scf:   18    -7607.710398    -7607.710398    -7607.710398  0.001601 -7.842521  0.001248
   scf:   19    -7607.710398    -7607.710398    -7607.710398  0.001395 -7.842289  0.000681
   scf:   20    -7607.710398    -7607.710398    -7607.710398  0.000602 -7.842056  0.000390
   scf:   21    -7607.710398    -7607.710398    -7607.710398  0.000262 -7.842036  0.000271
   scf:   22    -7607.710398    -7607.710398    -7607.710398  0.000262 -7.841946  0.000193
   scf:   23    -7607.710398    -7607.710398    -7607.710398  0.000253 -7.841900  0.000152
   scf:   24    -7607.710398    -7607.710398    -7607.710398  0.000134 -7.841846  0.000080
   scf:   25    -7607.710398    -7607.710398    -7607.710398  0.000049 -7.841843  0.000062

SCF Convergence by DM+H criterion
max |DM_out - DM_in|         :     0.0000485202
max |H_out - H_in|      (eV) :     0.0000622712
SCF cycle converged after 25 iterations

Using DM_out to compute the final energy and forces
No. of atoms with KB's overlaping orbs in proc 0. Max # of overlaps:     111     274

siesta: E_KS(eV) =            -7607.7104

siesta: E_KS - E_eggbox =     -7607.7104

siesta: Atomic forces (eV/Ang):
----------------------------------------
   Tot   -0.000000    0.000000   -0.015101
----------------------------------------
   Max    8.665404
   Res    3.122767    sqrt( Sum f_i^2 / 3N )
----------------------------------------
   Max    8.665404    constrained

Stress tensor Voigt[x,y,z,yz,xz,xy] (kbar):     -222.98      456.61      438.00        0.00       -0.00        0.00
(Free)E + p*V (eV/cell)    -7626.0359
Target enthalpy (eV/cell)    -7607.7104

siesta: Program's energy decomposition (eV):
siesta: Ebs     =     -1904.929392
siesta: Eions   =     11173.991623
siesta: Ena     =      1926.354633
siesta: Ekin    =      3496.974460
siesta: Enl     =      -309.601754
siesta: Eso     =         0.000000
siesta: Edftu   =         0.000000
siesta: DEna    =       -41.710936
siesta: DUscf   =         8.310265
siesta: DUext   =         0.000000
siesta: Ex      =     -1357.936590
siesta: Ec      =      -156.108855
siesta: Exc     =     -1514.045445
siesta: EbV     =         0.000000
siesta: eta*DQ  =         0.000000
siesta: Emadel  =         0.000000
siesta: Emeta   =         0.000000
siesta: Emolmec =         0.000000
siesta: Ekinion =         0.000000
siesta: Eharris =     -7607.710398
siesta: Etot    =     -7607.710398
siesta: FreeEng =     -7607.710398

siesta: Final energy (eV):
siesta:  Band Struct. =   -1904.929392
siesta:       Kinetic =    3496.974460
siesta:       Hartree =    1669.875082
siesta:         Edftu =       0.000000
siesta:       Eso     =       0.000000
siesta:    Ext. field =       0.000000
siesta:         Exch. =   -1357.936590
siesta:         Corr. =    -156.108855
siesta:     Bulk bias =       0.000000
siesta:   Exch.-corr. =   -1514.045445
siesta:  Ion-electron =   -7150.461859
siesta:       Ion-ion =   -4110.052636
siesta:       Ekinion =       0.000000
siesta: D3 dispersion =       0.000000
siesta:         Total =   -7607.710398
siesta:         Fermi =      -7.841843

siesta: Atomic forces (eV/Ang):
siesta:      1   -0.000000    0.000000   -3.500629
siesta:      2   -0.000000   -0.000000   -3.500629
siesta:      3   -0.000000    0.000000   -8.665404
siesta:      4   -0.000000   -0.000000   -8.665404
siesta:      5   -0.000000   -1.708080    3.254892
siesta:      6    0.000000    1.708080    3.254892
siesta:      7   -0.000000   -1.708080    3.254892
siesta:      8    0.000000    1.708080    3.254892
siesta:      9    0.000000   -0.000000    5.648698
siesta:     10    0.000000   -0.000000    5.648698
siesta: ----------------------------------------
siesta:    Tot   -0.000000    0.000000   -0.015101

siesta: Stress tensor (static) (eV/Ang**3):
siesta:    -0.139171    0.000000   -0.000000
siesta:     0.000000    0.284991   -0.000000
siesta:    -0.000000    0.000000    0.273380

siesta: Cell volume =        131.146215 Ang**3

siesta: Pressure (static):
siesta:                Solid            Molecule  Units
siesta:          -0.00152189         -0.00021841  Ry/Bohr**3
siesta:          -0.13973330         -0.02005371  eV/Ang**3
siesta:        -223.87743322        -32.12958832  kBar

Basis Enthalpy Calculation:
    Basis Pressure for species 1(Ba) :      0.2000000 GPa
    Basis Pressure for species 2(Ti) :      0.2000000 GPa
    Basis Pressure for species 3(O) :      0.2000000 GPa

    Orbital volume contribution        =           6.464442 eV
    (Free)E + p_basis*V_orbitals       =       -7601.245957 eV
    (Free)Eharris+ p_basis*V_orbitals  =       -7601.245957 eV
WARNING: BASIS_ENTHALPY and BASIS_HARRIS_ENTHALPY files are deprecated. They will be removed in future releases.
Please use system_label.BASIS_ENTHALPY in your scripts instead.

siesta: Macroscopic polarization per unit cell (a.u.):
siesta: Along the lattice vectors      195.712662    281.295080    537.235390
siesta: Along cartesian directions     195.712662    281.295080    537.235390

siesta: Macroscopic polarization per unit cell (Debye):
siesta: Along the lattice vectors      497.451968    714.980777   1365.516157
siesta: Along cartesian directions     497.451968    714.980777   1365.516157

cite: Please indicate the Siesta version in published work: 5.4.2
cite: This calculation has made use of features in the following articles
cite: which we encourage you to cite in published work.
cite: (Please see "siesta.bib" for a BibTeX file.)
        Primary SIESTA paper
          DOI: www.doi.org/10.1088/0953-8984/14/11/302
        PSML pseudopotential format
          DOI: www.doi.org/10.1016/j.cpc.2018.02.011


timer: Elapsed wall time (sec) =      51.197
timer: CPU execution times (sec):

Routine            Calls   Time/call    Tot.time        %
siesta                 1      51.161      51.161   100.00
Setup                  1       0.194       0.194     0.38
bands                  1       0.000       0.000     0.00
KSV_init               1       0.000       0.000     0.00
IterGeom               1      27.123      27.123    53.01
geom_init              1       6.101       6.101    11.92
state_init             1       3.464       3.464     6.77
hsparse                1       0.056       0.056     0.11
overlap                1       0.014       0.014     0.03
Setup_H0               1       1.864       1.864     3.64
naefs                  2       0.000       0.001     0.00
dnaefs                 1       0.000       0.000     0.00
two-body               1       0.000       0.000     0.00
MolMec                 2       0.000       0.000     0.00
kinefsm                2       0.014       0.029     0.06
nlefsm                 2       0.108       0.216     0.42
DHSCF_Init             1       1.769       1.769     3.46
DHSCF1                 1       0.043       0.043     0.08
InitMesh               1       0.043       0.043     0.08
INITMESH               1       0.000       0.000     0.00
DHSCF2                 1       1.725       1.725     3.37
REMESH                 1       0.378       0.378     0.74
REORD                 69       0.000       0.012     0.02
PHION                  1       1.136       1.136     2.22
COMM_BSC             111       0.000       0.013     0.03
POISON                28       0.004       0.113     0.22
fft                   56       0.002       0.085     0.17
setup_H               26       0.730      18.978    37.09
DHSCF                 27       0.787      21.262    41.56
DHSCF3                27       0.732      19.768    38.64
rhoofd                27       0.410      11.066    21.63
XC                    27       0.014       0.389     0.76
GXC-CellXC            27       0.014       0.382     0.75
gridxc@cellXC         27       0.014       0.382     0.75
vmat                  27       0.302       8.160    15.95
IterSCF               25       0.742      18.562    36.28
compute_dm            25       0.012       0.308     0.60
diagon                25       0.012       0.302     0.59
r-eigvec              25       0.003       0.080     0.16
r-buildHS             25       0.000       0.005     0.01
rdiag                 25       0.003       0.075     0.15
rdiag1                25       0.000       0.003     0.01
rdiag2                25       0.000       0.008     0.02
rdiag3                25       0.002       0.045     0.09
rdiag4                25       0.001       0.018     0.04
r-buildD              25       0.009       0.219     0.43
MIXER                 24       0.001       0.018     0.04
PostSCF                1       2.459       2.459     4.81
FINAL_HF               1       2.459       2.459     4.81
DHSCF4                 1       1.493       1.493     2.92
dfscf                  1       1.290       1.290     2.52
overfsm                1       0.013       0.013     0.03
writeHSX               1       0.001       0.001     0.00
state_analysis         1       0.000       0.000     0.00
siesta_move            1       0.000       0.000     0.00
Analysis               1      23.833      23.833    46.58
KSV_pol                1      12.813      12.813    25.04
phirphi                3       0.046       0.139     0.27
cdiag                360       0.005       1.937     3.79
cdiag1               360       0.000       0.083     0.16
cdiag2               360       0.001       0.293     0.57
cdiag3               360       0.003       1.227     2.40
cdiag4               360       0.001       0.327     0.64
optical                1       0.000       0.000     0.00
  

>> End of run:   5-JUN-2026  12:35:20
Job completed
Job completed
