<preamble>

<basis_specs>
===============================================================================
Ti                   Z=  22    Mass=  47.867        Charge= 0.17977+309
Lmxo=2 Lmxkb= 2    BasisType=split      Semic=T
L=0  Nsemic=1  Cnfigmx=4
          i=1  nzeta=1  polorb=0  (3s)  (semicore shell)
            splnorm:   0.15000    
               vcte:    40.000    
               rinn:    2.5702    
               qcoe:    0.0000    
               qyuk:    0.0000    
               qwid:   0.10000E-01
                rcs:    2.8557    
            lambdas:    1.0000    
          i=2  nzeta=2  polorb=0  (4s)  (to be polarized non-perturbatively)
            splnorm:   0.15000    
               vcte:    40.000    
               rinn:    6.8015    
               qcoe:    0.0000    
               qyuk:    0.0000    
               qwid:   0.10000E-01
                rcs:    7.5497      5.6580    
            lambdas:    1.0000      1.0000    
L=1  Nsemic=1  Cnfigmx=4
          i=1  nzeta=1  polorb=0  (3p)  (semicore shell)
            splnorm:   0.15000    
               vcte:    40.000    
               rinn:    2.8845    
               qcoe:    0.0000    
               qyuk:    0.0000    
               qwid:   0.10000E-01
                rcs:    3.2018    
            lambdas:    1.0000    
          i=2  nzeta=1  polorb=0  (4p)  (non-perturbative polarization shell)
            splnorm:   0.15000    
               vcte:    40.000    
               rinn:    6.8015    
               qcoe:    0.0000    
               qyuk:    0.0000    
               qwid:   0.10000E-01
                rcs:    7.5497    
            lambdas:    1.0000    
L=2  Nsemic=0  Cnfigmx=3
          i=1  nzeta=2  polorb=0  (3d)
            splnorm:   0.15000    
               vcte:    40.000    
               rinn:    4.7807    
               qcoe:    0.0000    
               qyuk:    0.0000    
               qwid:   0.10000E-01
                rcs:    5.3066      3.5254    
            lambdas:    1.0000      1.0000    
-------------------------------------------------------------------------------
L=0  Nkbl=2  erefs: 0.17977+309 0.17977+309
L=1  Nkbl=2  erefs: 0.17977+309 0.17977+309
L=2  Nkbl=1  erefs: 0.17977+309
===============================================================================
</basis_specs>

<pseudopotential_header>
 Ti pb nrl pcec
 ONCVPSP-3.2017-10-31Hamann's oncvpsp                        
 3s 2.00  r= 1.36/3p 6.00  r= 1.31/3d 2.00  r= 1.66/                    3s:3p:3d:4s:
</pseudopotential_header>
</preamble>
Ti                            # Symbol
Ti                            # Label
   22                         # Atomic number
     12.0000000000                             # Valence charge
     47.8670000000        # Mass 
     177.050889328        # Self energy 
   2   7                      # Lmax for basis, no. of nl orbitals 
   2   6                      # Lmax for projectors, no. of nl KB projectors
# PAOs:__________________________
  0  3  1  0  2.000000   #orbital l, n, z, is_polarized, population
 500    0.5722944272255589E-02     2.855749191855539     # npts, delta, cutoff
     0.000000000000000        0.9475047402369545    
    0.5722944272255589E-02    0.9475856698185264    
    0.1144588854451118E-01    0.9478850851574977    
    0.1716883281676677E-01    0.9483838520980339    
    0.2289177708902236E-01    0.9490815415642899    
    0.2861472136127795E-01    0.9499775632347410    
    0.3433766563353353E-01    0.9510711604723321    
    0.4006060990578913E-01    0.9523614101140978    
    0.4578355417804471E-01    0.9538472229807431    
    0.5150649845030030E-01    0.9555273446462257    
    0.5722944272255590E-01    0.9574003563753768    
    0.6295238699481148E-01    0.9594646762044969    
    0.6867533126706707E-01    0.9617185601565522    
    0.7439827553932266E-01    0.9641601035877154    
    0.8012121981157826E-01    0.9667872426638361    
    0.8584416408383384E-01    0.9695977559660595    
    0.9156710835608943E-01    0.9725892662251308    
    0.9729005262834502E-01    0.9757592421840013    
    0.1030129969006006        0.9791050005883456    
    0.1087359411728562        0.9826237083045848    
    0.1144588854451118        0.9863123845649329    
    0.1201818297173674        0.9901679033389116    
    0.1259047739896230        0.9941869958306720    
    0.1316277182618786        0.9983662531013742    
    0.1373506625341341         1.002702128815743    
    0.1430736068063897         1.007190942111812    
    0.1487965510786453         1.011828880592719    
    0.1545194953509009         1.016612003439290    
    0.1602424396231565         1.021536244642017    
    0.1659653838954121         1.026597416350836    
    0.1716883281676677         1.031791212341027    
    0.1774112724399233         1.037113211593325    
    0.1831342167121789         1.042558881986210    
    0.1888571609844344         1.048123584098166    
    0.1945801052566900         1.053802575117496    
    0.2003030495289456         1.059591012857142    
    0.2060259938012012         1.065483959871730    
    0.2117489380734568         1.071476387673929    
    0.2174718823457124         1.077563181046971    
    0.2231948266179680         1.083739142450011    
    0.2289177708902236         1.089998996512821    
    0.2346407151624792         1.096337394616111    
    0.2403636594347348         1.102748919553550    
    0.2460866037069903         1.109228090271410    
    0.2518095479792459         1.115769366681500    
    0.2575324922515015         1.122367154542930    
    0.2632554365237571         1.129015810407969    
    0.2689783807960127         1.135709646627139    
    0.2747013250682683         1.142442936408429    
    0.2804242693405239         1.149209918925384    
    0.2861472136127794         1.156004804468583    
    0.2918701578850351         1.162821779634860    
    0.2975931021572906         1.169655012548460    
    0.3033160464295462         1.176498658108103    
    0.3090389907018019         1.183346863253818    
    0.3147619349740574         1.190193772247211    
    0.3204848792463130         1.197033531958700    
    0.3262078235185686         1.203860297155122    
    0.3319307677908242         1.210668235780953    
    0.3376537120630798         1.217451534226343    
    0.3433766563353354         1.224204402574977    
    0.3490996006075909         1.230921079824784    
    0.3548225448798465         1.237595839074381    
    0.3605454891521021         1.244222992668148    
    0.3662684334243577         1.250796897292769    
    0.3719913776966133         1.257311959018098    
    0.3777143219688689         1.263762638275225    
    0.3834372662411245         1.270143454764646    
    0.3891602105133801         1.276448992287551    
    0.3948831547856357         1.282673903493297    
    0.4006060990578912         1.288812914536297    
    0.4063290433301469         1.294860829635668    
    0.4120519876024024         1.300812535531206    
    0.4177749318746580         1.306663005829400    
    0.4234978761469136         1.312407305233480    
    0.4292208204191692         1.318040593651718    
    0.4349437646914248         1.323558130178462    
    0.4406667089636804         1.328955276942725    
    0.4463896532359360         1.334227502819407    
    0.4521125975081915         1.339370386998596    
    0.4578355417804472         1.344379622408720    
    0.4635584860527027         1.349251018989687    
    0.4692814303249583         1.353980506812475    
    0.4750043745972139         1.358564139042046    
    0.4807273188694695         1.362998094740779    
    0.4864502631417251         1.367278681510004    
    0.4921732074139807         1.371402337967566    
    0.4978961516862363         1.375365636059698    
    0.5036190959584919         1.379165283205828    
    0.5093420402307475         1.382798124275261    
    0.5150649845030031         1.386261143395024    
    0.5207879287752586         1.389551465588411    
    0.5265108730475142         1.392666358244112    
    0.5322338173197698         1.395603232416057    
    0.5379567615920254         1.398359643954326    
    0.5436797058642809         1.400933294467826    
    0.5494026501365366         1.403322032119510    
    0.5551255944087922         1.405523852255306    
    0.5608485386810478         1.407536897867970    
    0.5665714829533034         1.409359459897400    
    0.5722944272255589         1.410989977369029    
    0.5780173714978145         1.412427037372183    
    0.5837403157700701         1.413669374880386    
    0.5894632600423257         1.414715872415835    
    0.5951862043145812         1.415565559560331    
    0.6009091485868369         1.416217612315218    
    0.6066320928590925         1.416671352312966    
    0.6123550371313481         1.416926245883189    
    0.6180779814036037         1.416981902976080    
    0.6238009256758592         1.416838075946347    
    0.6295238699481148         1.416494658200925    
    0.6352468142203704         1.415951682713835    
    0.6409697584926261         1.415209320411746    
    0.6466927027648816         1.414267878433932    
    0.6524156470371372         1.413127798270426    
    0.6581385913093928         1.411789653782346    
    0.6638615355816484         1.410254149108481    
    0.6695844798539039         1.408522116462361    
    0.6753074241261595         1.406594513824177    
    0.6810303683984151         1.404472422531990    
    0.6867533126706707         1.402157044776856    
    0.6924762569429264         1.399649701006549    
    0.6981992012151819         1.396951827242676    
    0.7039221454874375         1.394064972316101    
    0.7096450897596931         1.390990795025651    
    0.7153680340319487         1.387731061225173    
    0.7210909783042042         1.384287640844085    
    0.7268139225764598         1.380662504846589    
    0.7325368668487154         1.376857722134813    
    0.7382598111209711         1.372875456401127    
    0.7439827553932267         1.368717962934950    
    0.7497056996654822         1.364387585389327    
    0.7554286439377378         1.359886752512595    
    0.7611515882099934         1.355217974850394    
    0.7668745324822490         1.350383841423257    
    0.7725974767545045         1.345387016393465    
    0.7783204210267601         1.340230239223666    
    0.7840433652990157         1.334916310658107    
    0.7897663095712714         1.329448100093108    
    0.7954892538435270         1.323828538592801    
    0.8012121981157825         1.318060615534171    
    0.8069351423880381         1.312147375254237    
    0.8126580866602937         1.306091913711655    
    0.8183810309325493         1.299897375166923    
    0.8241039752048048         1.293566948885327    
    0.8298269194770604         1.287103865866462    
    0.8355498637493161         1.280511395604048    
    0.8412728080215717         1.273792842879521    
    0.8469957522938272         1.266951544592669    
    0.8527186965660828         1.259990866632393    
    0.8584416408383384         1.252914200790439    
    0.8641645851105940         1.245724961720729    
    0.8698875293828496         1.238426583946696    
    0.8756104736551051         1.231022518918830    
    0.8813334179273608         1.223516232124399    
    0.8870563621996164         1.215911200251112    
    0.8927793064718720         1.208210908406258    
    0.8985022507441275         1.200418847392697    
    0.9042251950163831         1.192538511042822    
    0.9099481392886387         1.184573393611459    
    0.9156710835608943         1.176526987228487    
    0.9213940278331499         1.168402779411756    
    0.9271169721054054         1.160204250640745    
    0.9328399163776611         1.151934871991234    
    0.9385628606499167         1.143598102831114    
    0.9442858049221723         1.135197388577331    
    0.9500087491944278         1.126736158513814    
    0.9557316934666834         1.118217823670156    
    0.9614546377389390         1.109645774760670    
    0.9671775820111946         1.101023380183379    
    0.9729005262834501         1.092353984078403    
    0.9786234705557058         1.083640904445115    
    0.9843464148279614         1.074887431317412    
    0.9900693591002170         1.066096824996348    
    0.9957923033724726         1.057272314339355    
     1.001515247644728         1.048417095105246    
     1.007238191916984         1.039534328354140    
     1.012961136189239         1.030627138901453    
     1.018684080461495         1.021698613825075    
     1.024407024733750         1.012751801024858    
     1.030129969006006         1.003789707833518    
     1.035852913278262        0.9948152996780950    
     1.041575857550517        0.9858314987911088    
     1.047298801822773        0.9768411829705649    
     1.053021746095028        0.9678471843880108    
     1.058744690367284        0.9588522884438458    
     1.064467634639540        0.9498592326691465    
     1.070190578911795        0.9408707056732846    
     1.075913523184051        0.9318893461366761    
     1.081636467456306        0.9229177418480321    
     1.087359411728562        0.9139584287855145    
     1.093082356000818        0.9050138902412888    
     1.098805300273073        0.8960865559889636    
     1.104528244545329        0.8871788014934923    
     1.110251188817584        0.8782929471631589    
     1.115974133089840        0.8694312576432990    
     1.121697077362096        0.8605959411514874    
     1.127420021634351        0.8517891488539563    
     1.133142965906607        0.8430129742830558    
     1.138865910178862        0.8342694527956319    
     1.144588854451118        0.8255605610722216    
     1.150311798723374        0.8168882166570335    
     1.156034742995629        0.8082542775387017    
     1.161757687267885        0.7996605417718590    
     1.167480631540140        0.7911087471395957    
     1.173203575812396        0.7826005708569147    
     1.178926520084651        0.7741376293153203    
     1.184649464356907        0.7657214778686970    
     1.190372408629162        0.7573536106606763    
     1.196095352901418        0.7490354604936733    
     1.201818297173674        0.7407683987398280    
     1.207541241445929        0.7325537352940598    
     1.213264185718185        0.7243927185694686    
     1.218987129990440        0.7162865355353170    
     1.224710074262696        0.7082363117977970    
     1.230433018534952        0.7002431117238055    
     1.236155962807207        0.6923079386079147    
     1.241878907079463        0.6844317348827017    
     1.247601851351718        0.6766153823726159    
     1.253324795623974        0.6688597025915471    
     1.259047739896230        0.6611654570842732    
     1.264770684168485        0.6535333478108848    
     1.270493628440741        0.6459640175750526    
     1.276216572712996        0.6384580504969410    
     1.281939516985252        0.6310159725300518    
     1.287662461257508        0.6236382520203763    
     1.293385405529763        0.6163253003117128    
     1.299108349802019        0.6090774723948984    
     1.304831294074274        0.6018950675874728    
     1.310554238346530        0.5947783302341787    
     1.316277182618786        0.5877274503821006    
     1.322000126891041        0.5807425644514902    
     1.327723071163297        0.5738237563435447    
     1.333446015435552        0.5669710586861774    
     1.339168959707808        0.5601844533735301    
     1.344891903980064        0.5534638706705955    
     1.350614848252319        0.5468091893958478    
     1.356337792524575        0.5402202404200884    
     1.362060736796830        0.5336968135839986    
     1.367783681069086        0.5272386652274669    
     1.373506625341341        0.5208455257855609    
     1.379229569613597        0.5145171087522513    
     1.384952513885853        0.5082531168671383    
     1.390675458158108        0.5020532435509838    
     1.396398402430364        0.4959171720487897    
     1.402121346702619        0.4898445739448009    
     1.407844290974875        0.4838351098159136    
     1.413567235247131        0.4778884302023478    
     1.419290179519386        0.4720041765226787    
     1.425013123791642        0.4661819814748034    
     1.430736068063897        0.4604214694715353    
     1.436459012336153        0.4547222571086491    
     1.442181956608408        0.4490839536263788    
     1.447904900880664        0.4435061613527116    
     1.453627845152920        0.4379884761299075    
     1.459350789425175        0.4325304877259044    
     1.465073733697431        0.4271317802309513    
     1.470796677969686        0.4217919324399905    
     1.476519622241942        0.4165105182212080    
     1.482242566514198        0.4112871068712669    
     1.487965510786453        0.4061212634576339    
     1.493688455058709        0.4010125491484570    
     1.499411399330964        0.3959605215303858    
     1.505134343603220        0.3909647349147353    
     1.510857287875476        0.3860247406323931    
     1.516580232147731        0.3811400873178131    
     1.522303176419987        0.3763103211824862    
     1.528026120692242        0.3715349862782172    
     1.533749064964498        0.3668136247505368    
     1.539472009236754        0.3621457770825964    
     1.545194953509009        0.3575309823298212    
     1.550917897781265        0.3529687783456571    
     1.556640842053520        0.3484587019986770    
     1.562363786325776        0.3440002893813313    
     1.568086730598031        0.3395930760106227    
     1.573809674870287        0.3352365970209480    
     1.579532619142543        0.3309303873493674    
     1.585255563414798        0.3266739819135396    
     1.590978507687054        0.3224669157825421    
     1.596701451959309        0.3183087243408137    
     1.602424396231565        0.3141989434454999    
     1.608147340503821        0.3101371095773139    
     1.613870284776076        0.3061227599848834    
     1.619593229048332        0.3021554328234541    
     1.625316173320587        0.2982346672879758    
     1.631039117592843        0.2943600037406500    
     1.636762061865099        0.2905309838324057    
     1.642485006137354        0.2867471506156851    
     1.648207950409610        0.2830080486538277    
     1.653930894681865        0.2793132241265472    
     1.659653838954121        0.2756622249374527    
     1.665376783226377        0.2720546008200154    
     1.671099727498632        0.2684899034393947    
     1.676822671770888        0.2649676864902114    
     1.682545616043143        0.2614875057893642    
     1.688268560315399        0.2580489193631189    
     1.693991504587654        0.2546514875288675    
     1.699714448859910        0.2512947729652694    
     1.705437393132166        0.2479783407759373    
     1.711160337404421        0.2447017585481334    
     1.716883281676677        0.2414645964084573    
     1.722606225948932        0.2382664270785471    
     1.728329170221188        0.2351068259267284    
     1.734052114493444        0.2319853710168435    
     1.739775058765699        0.2289016431534251    
     1.745498003037955        0.2258552259238014    
     1.751220947310210        0.2228457057376064    
     1.756943891582466        0.2198726718635897    
     1.762666835854722        0.2169357164637772    
     1.768389780126977        0.2140344346251166    
     1.774112724399233        0.2111684243887004    
     1.779835668671488        0.2083372867766536    
     1.785558612943744        0.2055406258167756    
     1.791281557215999        0.2027780485650124    
     1.797004501488255        0.2000491651258446    
     1.802727445760511        0.1973535886706694    
     1.808450390032766        0.1946909354542500    
     1.814173334305022        0.1920608248293103    
     1.819896278577277        0.1894628792593425    
     1.825619222849533        0.1868967243296966    
     1.831342167121789        0.1843619887570230    
     1.837065111394044        0.1818583043971240    
     1.842788055666300        0.1793853062512859    
     1.848510999938555        0.1769426324711468    
     1.854233944210811        0.1745299243621582    
     1.859956888483067        0.1721468263857008    
     1.865679832755322        0.1697929861599025    
     1.871402777027578        0.1674680544592183    
     1.877125721299833        0.1651716852128199    
     1.882848665572089        0.1629035355018440    
     1.888571609844345        0.1606632655555474    
     1.894294554116600        0.1584505387464162    
     1.900017498388856        0.1562650215842740    
     1.905740442661111        0.1541063837094277    
     1.911463386933367        0.1519742978849008    
     1.917186331205623        0.1498684399877875    
     1.922909275477878        0.1477884889997704    
     1.928632219750134        0.1457341269968380    
     1.934355164022389        0.1437050391382389    
     1.940078108294645        0.1417009136547093    
     1.945801052566900        0.1397214418360065    
     1.951523996839156        0.1377663180177797    
     1.957246941111412        0.1358352395678154    
     1.962969885383667        0.1339279068716819    
     1.968692829655923        0.1320440233178078    
     1.974415773928178        0.1301832952820182    
     1.980138718200434        0.1283454321115624    
     1.985861662472689        0.1265301461086530    
     1.991584606744945        0.1247371525135493    
     1.997307551017201        0.1229661694872017    
     2.003030495289456        0.1212169180934895    
     2.008753439561712        0.1194891222810707    
     2.014476383833967        0.1177825088648633    
     2.020199328106223        0.1160968075071864    
     2.025922272378478        0.1144317506985776    
     2.031645216650734        0.1127870737383043    
     2.037368160922990        0.1111625147145940    
     2.043091105195245        0.1095578144845959    
     2.048814049467501        0.1079727166540964    
     2.054536993739756        0.1064069675570002    
     2.060259938012012        0.1048603162345989    
     2.065982882284268        0.1033325144146384    
     2.071705826556523        0.1018233164902010    
     2.077428770828779        0.1003324794984181    
     2.083151715101034        0.9885976309902600E-01
     2.088874659373290        0.9740492955277830E-01
     2.094597603645546        0.9596774369972659E-01
     2.100320547917801        0.9454797293738412E-01
     2.106043492190057        0.9314538719878120E-01
     2.111766436462312        0.9175975893042584E-01
     2.117489380734568        0.9039086307017914E-01
     2.123212325006824        0.8903847702505764E-01
     2.128935269279079        0.8770238064896702E-01
     2.134658213551335        0.8638235622038389E-01
     2.140381157823590        0.8507818841999067E-01
     2.146104102095846        0.8378966430826203E-01
     2.151827046368102        0.8251657330304427E-01
     2.157549990640357        0.8125870715712497E-01
     2.163272934912613        0.8001585993577497E-01
     2.168995879184868        0.7878782799430109E-01
     2.174718823457124        0.7757440995560384E-01
     2.180441767729380        0.7637540668763212E-01
     2.186164712001635        0.7519062128089318E-01
     2.191887656273891        0.7401985902601443E-01
     2.197610600546146        0.7286292739134582E-01
     2.203333544818402        0.7171963600066360E-01
     2.209056489090658        0.7058979661097492E-01
     2.214779433362913        0.6947322309038383E-01
     2.220502377635169        0.6836973139597539E-01
     2.226225321907424        0.6727913955163006E-01
     2.231948266179680        0.6620126762642638E-01
     2.237671210451936        0.6513593771294712E-01
     2.243394154724191        0.6408297390547144E-01
     2.249117098996447        0.6304220227846560E-01
     2.254840043268702        0.6201345086469775E-01
     2.260562987540958        0.6099654963220778E-01
     2.266285931813214        0.5999133046187038E-01
     2.272008876085469        0.5899762712514597E-01
     2.277731820357725        0.5801527526153353E-01
     2.283454764629980        0.5704411235748595E-01
     2.289177708902236        0.5608397772619397E-01
     2.294900653174492        0.5513471248709281E-01
     2.300623597446747        0.5419615954559730E-01
     2.306346541719003        0.5326816357322322E-01
     2.312069485991258        0.5235057098673980E-01
     2.317792430263514        0.5144322992737672E-01
     2.323515374535770        0.5054599024030292E-01
     2.329238318808025        0.4965870345412673E-01
     2.334961263080281        0.4878122276045565E-01
     2.340684207352536        0.4791340299393525E-01
     2.346407151624792        0.4705510061233935E-01
     2.352130095897047        0.4620617367675252E-01
     2.357853040169303        0.4536648183189755E-01
     2.363575984441558        0.4453588628659803E-01
     2.369298928713814        0.4371424979433106E-01
     2.375021872986069        0.4290143663392743E-01
     2.380744817258325        0.4209731259041394E-01
     2.386467761530581        0.4130174493598953E-01
     2.392190705802836        0.4051460241113879E-01
     2.397913650075092        0.3973575520588065E-01
     2.403636594347347        0.3896507494115526E-01
     2.409359538619603        0.3820243465034898E-01
     2.415082482891859        0.3744770876095695E-01
     2.420805427164114        0.3670077307638493E-01
     2.426528371436370        0.3596150475789055E-01
     2.432251315708625        0.3522978230666168E-01
     2.437974259980881        0.3450548554603616E-01
     2.443697204253137        0.3378849560385903E-01
     2.449420148525392        0.3307869489497970E-01
     2.455143092797648        0.3237596710388757E-01
     2.460866037069903        0.3168019716748734E-01
     2.466588981342159        0.3099127125801188E-01
     2.472311925614415        0.3030907676607398E-01
     2.478034869886670        0.2963350228385768E-01
     2.483757814158926        0.2896443758844404E-01
     2.489480758431181        0.2830177362527759E-01
     2.495203702703437        0.2764540249176763E-01
     2.500926646975692        0.2699521742102680E-01
     2.506649591247948        0.2635111276574474E-01
     2.512372535520204        0.2571298398219784E-01
     2.518095479792459        0.2508072761439369E-01
     2.523818424064715        0.2445424127834811E-01
     2.529541368336970        0.2383342364649762E-01
     2.535264312609226        0.2321817443224244E-01
     2.540987256881482        0.2260839437462321E-01
     2.546710201153737        0.2200398522312665E-01
     2.552433145425993        0.2140484972262309E-01
     2.558156089698248        0.2081089159843351E-01
     2.563879033970504        0.2022201554152312E-01
     2.569601978242760        0.1963812719382527E-01
     2.575324922515015        0.1905913313368906E-01
     2.581047866787271        0.1848494086145481E-01
     2.586770811059526        0.1791545878523209E-01
     2.592493755331782        0.1735059622183965E-01
     2.598216699604038        0.1679026377687683E-01
     2.603939643876293        0.1623437621934484E-01
     2.609662588148549        0.1568286145830159E-01
     2.615385532420804        0.1513567606406942E-01
     2.621108476693060        0.1459282307944912E-01
     2.626831420965316        0.1405436695508067E-01
     2.632554365237571        0.1352044259356237E-01
     2.638277309509827        0.1299125794505594E-01
     2.644000253782082        0.1246709110543222E-01
     2.649723198054338        0.1194828343032715E-01
     2.655446142326594        0.1143523016768540E-01
     2.661169086598849        0.1092836985041599E-01
     2.666892030871105        0.1042817337014945E-01
     2.672614975143360        0.9935133361230891E-02
     2.678337919415616        0.9449754290932200E-02
     2.684060863687872        0.8972543479314121E-02
     2.689783807960127        0.8504003151206864E-02
     2.695506752232383        0.8044623541846249E-02
     2.701229696504638        0.7594877026105802E-02
     2.706952640776894        0.7155213210371459E-02
     2.712675585049150        0.6726054909335690E-02
     2.718398529321405        0.6307794922598539E-02
     2.724121473593661        0.5900793524543937E-02
     2.729844417865916        0.5505376583211079E-02
     2.735567362138172        0.5121834228157863E-02
     2.741290306410427        0.4750419992561422E-02
     2.747013250682683        0.4391350360243706E-02
     2.752736194954938        0.4044804653430681E-02
     2.758459139227194        0.3710925201418805E-02
     2.764182083499449        0.3389817733530620E-02
     2.769905027771705        0.3081551941312229E-02
     2.775627972043961        0.2786162154171001E-02
     2.781350916316216        0.2503648068474185E-02
     2.787073860588472        0.2233975460651673E-02
     2.792796804860727        0.1977076796732577E-02
     2.798519749132983        0.1732851617815560E-02
     2.804242693405239        0.1501166521221814E-02
     2.809965637677494        0.1281854446034080E-02
     2.815688581949750        0.1074712756169871E-02
     2.821411526222005        0.8794991693775049E-03
     2.827134470494261        0.6959235852938059E-03
     2.832857414766517        0.5236313851024741E-03
     2.838580359038772        0.3621666029281621E-03
     2.844303303311028        0.2108780125269612E-03
     2.850026247583283        0.6858843329451640E-04
     2.855749191855539         0.000000000000000    
  0  4  1  0  2.000000   #orbital l, n, z, is_polarized, population
 500    0.1512963367245282E-01     7.549687202553957     # npts, delta, cutoff
     0.000000000000000        0.3791232909199355    
    0.1512963367245282E-01    0.3793337196410071    
    0.3025926734490564E-01    0.3799857938379532    