<preamble>

<basis_specs>
===============================================================================
Zr                   Z=  40    Mass=  91.224        Charge= 0.17977+309
Lmxo=2 Lmxkb= 2    BasisType=split      Semic=T
L=0  Nsemic=1  Cnfigmx=5
          i=1  nzeta=1  polorb=0  (4s)  (semicore shell)
            splnorm:   0.15000    
               vcte:    40.000    
               rinn:    2.7544    
               qcoe:    0.0000    
               qyuk:    0.0000    
               qwid:   0.10000E-01
                rcs:    3.0574    
            lambdas:    1.0000    
          i=2  nzeta=2  polorb=0  (5s)  (to be polarized non-perturbatively)
            splnorm:   0.15000    
               vcte:    40.000    
               rinn:    6.7608    
               qcoe:    0.0000    
               qyuk:    0.0000    
               qwid:   0.10000E-01
                rcs:    7.5045      5.7667    
            lambdas:    1.0000      1.0000    
L=1  Nsemic=1  Cnfigmx=5
          i=1  nzeta=1  polorb=0  (4p)  (semicore shell)
            splnorm:   0.15000    
               vcte:    40.000    
               rinn:    3.1507    
               qcoe:    0.0000    
               qyuk:    0.0000    
               qwid:   0.10000E-01
                rcs:    3.4972    
            lambdas:    1.0000    
          i=2  nzeta=1  polorb=0  (5p)  (non-perturbative polarization shell)
            splnorm:   0.15000    
               vcte:    40.000    
               rinn:    6.7608    
               qcoe:    0.0000    
               qyuk:    0.0000    
               qwid:   0.10000E-01
                rcs:    7.5045    
            lambdas:    1.0000    
L=2  Nsemic=0  Cnfigmx=4
          i=1  nzeta=2  polorb=0  (4d)
            splnorm:   0.15000    
               vcte:    40.000    
               rinn:    5.2580    
               qcoe:    0.0000    
               qyuk:    0.0000    
               qwid:   0.10000E-01
                rcs:    5.8423      4.1805    
            lambdas:    1.0000      1.0000    
-------------------------------------------------------------------------------
L=0  Nkbl=2  erefs: 0.17977+309 0.17977+309
L=1  Nkbl=2  erefs: 0.17977+309 0.17977+309
L=2  Nkbl=1  erefs: 0.17977+309
===============================================================================
</basis_specs>

<pseudopotential_header>
 Zr pb nrl pcec
 ONCVPSP-3.2017-10-31Hamann's oncvpsp                        
 4s 2.00  r= 1.57/4p 6.00  r= 1.57/4d 2.00  r= 1.51/                    4s:4p:4d:5s:
</pseudopotential_header>
</preamble>
Zr                            # Symbol
Zr                            # Label
   40                         # Atomic number
     12.0000000000                             # Valence charge
     91.2240000000        # Mass 
     155.922284017        # Self energy 
   2   7                      # Lmax for basis, no. of nl orbitals 
   2   6                      # Lmax for projectors, no. of nl KB projectors
# PAOs:__________________________
  0  4  1  0  2.000000   #orbital l, n, z, is_polarized, population
 500    0.6127051137802106E-02     3.057398517763251     # npts, delta, cutoff
     0.000000000000000        0.1896456767511278    
    0.6127051137802106E-02    0.1897651006201263    
    0.1225410227560421E-01    0.1901346513341800    
    0.1838115341340632E-01    0.1907503265752034    
    0.2450820455120842E-01    0.1916117548636097    
    0.3063525568901053E-01    0.1927184183262461    
    0.3676230682681264E-01    0.1940696520054349    
    0.4288935796461475E-01    0.1956646441495806    
    0.4901640910241685E-01    0.1975024367113254    
    0.5514346024021895E-01    0.1995819259670579    
    0.6127051137802106E-01    0.2019018632403393    
    0.6739756251582317E-01    0.2044608557242792    
    0.7352461365362528E-01    0.2072573674009883    
    0.7965166479142738E-01    0.2102897200571522    
    0.8577871592922949E-01    0.2135560943950927    
    0.9190576706703159E-01    0.2170545312387636    
    0.9803281820483370E-01    0.2207829328341696    
    0.1041598693426358        0.2247390642436664    
    0.1102869204804379        0.2289205548335888    
    0.1164139716182400        0.2333248998546028    
    0.1225410227560421        0.2379494621141488    
    0.1286680738938442        0.2427914737402813    
    0.1347951250316463        0.2478480380361726    
    0.1409221761694484        0.2531161314244891    
    0.1470492273072506        0.2585926054807869    
    0.1531762784450527        0.2642741890550204    
    0.1593033295828548        0.2701574904801856    
    0.1654303807206569        0.2762389998670581    
    0.1715574318584590        0.2825150914839145    
    0.1776844829962611        0.2889820262200463    
    0.1838115341340632        0.2956359541318070    
    0.1899385852718653        0.3024729170698482    
    0.1960656364096674        0.3094888513861208    
    0.2021926875474695        0.3166795907191333    
    0.2083197386852716        0.3240408688558682    
    0.2144467898230737        0.3315683226686776    
    0.2205738409608758        0.3392574951253793    
    0.2267008920986779        0.3471038383706843    
    0.2328279432364800        0.3551027168770079    
    0.2389549943742821        0.3632494106625908    
    0.2450820455120842        0.3715391185747961    
    0.2512090966498863        0.3799669616363310    
    0.2573361477876885        0.3885279864520452    
    0.2634631989254906        0.3972171686738787    
    0.2695902500632927        0.4060294165214174    
    0.2757173012010948        0.4149595743554279    
    0.2818443523388969        0.4240024263016535    
    0.2879714034766990        0.4331526999220487    
    0.2940984546145011        0.4424050699305465    
    0.3002255057523032        0.4517541619503646    
    0.3063525568901053        0.4611945563097593    
    0.3124796080279074        0.4707207918730595    
    0.3186066591657095        0.4803273699037358    
    0.3247337103035116        0.4900087579561582    
    0.3308607614413137        0.4997593937926545    
    0.3369878125791159        0.5095736893223719    
    0.3431148637169180        0.5194460345584142    
    0.3492419148547201        0.5293708015896285    
    0.3553689659925222        0.5393423485633833    
    0.3614960171303243        0.5493550236756111    
    0.3676230682681264        0.5594031691643455    
    0.3737501194059285        0.5694811253029350    
    0.3798771705437306        0.5795832343890880    
    0.3860042216815327        0.5897038447258524    
    0.3921312728193348        0.5998373145906348    
    0.3982583239571369        0.6099780161883153    
    0.4043853750949390        0.6201203395845269    
    0.4105124262327411        0.6302586966151392    
    0.4166394773705432        0.6403875247680053    
    0.4227665285083453        0.6505012910330336    
    0.4288935796461474        0.6605944957166405    
    0.4350206307839495        0.6706616762166987    
    0.4411476819217516        0.6806974107540927    
    0.4472747330595537        0.6906963220570358    
    0.4534017841973559        0.7006530809943596    
    0.4595288353351580        0.7105624101540209    
    0.4656558864729601        0.7204190873631358    
    0.4717829376107622        0.7302179491459125    
    0.4779099887485643        0.7399538941159337    
    0.4840370398863664        0.7496218862992957    
    0.4901640910241685        0.7592169583852381    
    0.4962911421619706        0.7687342149009266    
    0.5024181932997727        0.7781688353072295    
    0.5085452444375748        0.7875160770123594    
    0.5146722955753770        0.7967712783004124    
    0.5207993467131791        0.8059298611719259    
    0.5269263978509812        0.8149873340937163    
    0.5330534489887833        0.8239392946553794    
    0.5391805001265854        0.8327814321299646    
    0.5453075512643875        0.8415095299364883    
    0.5514346024021896        0.8501194680020687    
    0.5575616535399917        0.8586072250216487    
    0.5636887046777938        0.8669688806133748    
    0.5698157558155958        0.8752006173679200    
    0.5759428069533979        0.8832987227901278    
    0.5820698580912000        0.8912595911315582    
    0.5881969092290023        0.8990797251126881    
    0.5943239603668043        0.9067557375336215    
    0.6004510115046064        0.9142843527724407    
    0.6065780626424085        0.9216624081703630    
    0.6127051137802106        0.9288868553031511    
    0.6188321649180127        0.9359547611383487    
    0.6249592160558148        0.9428633090780726    
    0.6310862671936169        0.9496097998872681    
    0.6372133183314190        0.9561916525075342    
    0.6433403694692211        0.9626064047567345    
    0.6494674206070232        0.9688517139148514    
    0.6555944717448253        0.9749253571966103    
    0.6617215228826274        0.9808252321116619    
    0.6678485740204296        0.9865493567131955    
    0.6739756251582317        0.9920958697360267    
    0.6801026762960338        0.9974630306253958    
    0.6862297274338359         1.002649219457832    
    0.6923567785716380         1.007652936755530    
    0.6984838297094401         1.012472803195928    
    0.7046108808472422         1.017107559218259    
    0.7107379319850443         1.021556064528938    
    0.7168649831228464         1.025817297507848    
    0.7229920342606485         1.029890354517651    
    0.7291190853984506         1.033774449118377    
    0.7352461365362527         1.037468911189673    
    0.7413731876740548         1.040973185963144    
    0.7475002388118570         1.044286832967377    
    0.7536272899496591         1.047409524888263    
    0.7597543410874612         1.050341046347344    
    0.7658813922252633         1.053081292600996    
    0.7720084433630654         1.055630268163294    
    0.7781354945008675         1.057988085355481    
    0.7842625456386696         1.060154962785024    
    0.7903895967764717         1.062131223757261    
    0.7965166479142738         1.063917294622697    
    0.8026436990520759         1.065513703063037    
    0.8087707501898780         1.066921076319070    
    0.8148978013276801         1.068140139363509    
    0.8210248524654822         1.069171713021935    
    0.8271519036032844         1.070016712044970    
    0.8332789547410865         1.070676143134839    
    0.8394060058788886         1.071151102929393    
    0.8455330570166907         1.071442775946737    
    0.8516601081544928         1.071552432493524    
    0.8577871592922949         1.071481426539974    
    0.8639142104300970         1.071231193564619    
    0.8700412615678991         1.070803248371760    
    0.8761683127057012         1.070199182884561    
    0.8822953638435033         1.069420663916653    
    0.8884224149813054         1.068469430925063    
    0.8945494661191075         1.067347293747241    
    0.9006765172569096         1.066056130324864    
    0.9068035683947118         1.064597884417054    
    0.9129306195325139         1.062974563305551    
    0.9190576706703160         1.061188235494331    
    0.9251847218081181         1.059241028406056    
    0.9313117729459202         1.057135126077682    
    0.9374388240837223         1.054872766857454    
    0.9435658752215244         1.052456241105437    
    0.9496929263593265         1.049887888899638    
    0.9558199774971285         1.047170097749700    
    0.9619470286349306         1.044305300320058    
    0.9680740797727327         1.041295972164314    
    0.9742011309105348         1.038144629472579    
    0.9803281820483369         1.034853827232881    
    0.9864552331861391         1.031426156416946    
    0.9925822843239412         1.027864241141046    
    0.9987093354617433         1.024170737929613    
     1.004836386599545         1.020348332926254    
     1.010963437737348         1.016399739750923    
     1.017090488875150         1.012327697377980    
     1.023217540012952         1.008134968037644    
     1.029344591150754         1.003824335141746    
     1.035471642288556        0.9993986012345881    
     1.041598693426358        0.9948605859696844    
     1.047725744564160        0.9902131241131189    
     1.053852795701962        0.9854590635741128    
     1.059979846839764        0.9806012634633886    
     1.066106897977567        0.9756425921798083    
     1.072233949115369        0.9705859255257264    
     1.078361000253171        0.9654341448514178    
     1.084488051390973        0.9601901352289507    
     1.090615102528775        0.9548567836557348    
     1.096742153666577        0.9494369772880279    
     1.102869204804379        0.9439336017045696    
     1.108996255942181        0.9383495392004827    
     1.115123307079983        0.9326876671115538    
     1.121250358217786        0.9269508561689809    
     1.127377409355588        0.9211419688847396    
     1.133504460493390        0.9152638579674843    
     1.139631511631192        0.9093193647690552    
     1.145758562768994        0.9033113177615251    
     1.151885613906796        0.8972425310449398    
     1.158012665044598        0.8911158028855709    
     1.164139716182400        0.8849339142847242    
     1.170266767320202        0.8786996275780393    
     1.176393818458005        0.8724156850652677    
     1.182520869595806        0.8660848076705330    
     1.188647920733609        0.8597096936329555    
     1.194774971871411        0.8532930172277599    
     1.200902023009213        0.8468374275177074    
     1.207029074147015        0.8403455471349789    
     1.213156125284817        0.8338199710934161    
     1.219283176422619        0.8272632656312446    
     1.225410227560421        0.8206779670843033    
     1.231537278698223        0.8140665807897791    
     1.237664329836025        0.8074315800206275    
     1.243791380973827        0.8007754049506471    
     1.249918432111630        0.7941004616504785    
     1.256045483249432        0.7874091211145499    
     1.262172534387234        0.7807037183191574    
     1.268299585525036        0.7739865513119283    
     1.274426636662838        0.7672598803327146    
     1.280553687800640        0.7605259269662942    
     1.286680738938442        0.7537868733269733    
     1.292807790076244        0.7470448612754088    
     1.298934841214046        0.7403019916679622    
     1.305061892351849        0.7335603236386963    
     1.311188943489651        0.7268218739145369    
     1.317315994627453        0.7200886161637060    
     1.323443045765255        0.7133624803778182    
     1.329570096903057        0.7066453522880074    
     1.335697148040859        0.6999390728152550    
     1.341824199178661        0.6932454375554576    
     1.347951250316463        0.6865661962994016    
     1.354078301454265        0.6799030525880037    
     1.360205352592068        0.6732576633032483    
     1.366332403729870        0.6666316382949828    
     1.372459454867672        0.6600265400439882    
     1.378586506005474        0.6534438833616146    
     1.384713557143276        0.6468851351261719    
     1.390840608281078        0.6403517140565137    
     1.396967659418880        0.6338449905229189    
     1.403094710556682        0.6273662863955531    
     1.409221761694484        0.6209168749307419    
     1.415348812832287        0.6144979806951896    
     1.421475863970089        0.6081107795283096    
     1.427602915107891        0.6017563985428019    
     1.433729966245693        0.5954359161635426    
     1.439857017383495        0.5891503622048345    
     1.445984068521297        0.5829007179860346    
     1.452111119659099        0.5766879164855614    
     1.458238170796901        0.5705128425333527    
     1.464365221934703        0.5643763330413312    
     1.470492273072505        0.5582791772708396    
     1.476619324210308        0.5522221171407647    
     1.482746375348110        0.5462058475706271    
     1.488873426485912        0.5402310168604813    
     1.495000477623714        0.5342982271088417    
     1.501127528761516        0.5284080346707478    
     1.507254579899318        0.5225609506488376    
     1.513381631037120        0.5167574414037865    
     1.519508682174922        0.5109979290446012    
     1.525635733312724        0.5052827921216341    
     1.531762784450527        0.4996123664580100    
     1.537889835588329        0.4939869461139342    
     1.544016886726131        0.4884067834328580    
     1.550143937863933        0.4828720887707397    
     1.556270989001735        0.4773830308242489    
     1.562398040139537        0.4719397391593099    
     1.568525091277339        0.4665423084989767    
     1.574652142415141        0.4611908032654294    
     1.580779193552943        0.4558852626243873    
     1.586906244690746        0.4506257053538836    
     1.593033295828548        0.4454121343626181    
     1.599160346966350        0.4402445388279049    
     1.605287398104152        0.4351228940061165    
     1.611414449241954        0.4300471606322969    
     1.617541500379756        0.4250172847141248    
     1.623668551517558        0.4200331984727395    
     1.629795602655360        0.4150948210678461    
     1.635922653793162        0.4102020592213095    
     1.642049704930964        0.4053548076942917    
     1.648176756068767        0.4005529497056745    
     1.654303807206569        0.3957963574474577    
     1.660430858344371        0.3910848924849571    
     1.666557909482173        0.3864184062223174    
     1.672684960619975        0.3817967403179489    
     1.678812011757777        0.3772197271132633    
     1.684939062895579        0.3726871900335695    
     1.691066114033381        0.3681989439797078    
     1.697193165171183        0.3637547957076354    
     1.703320216308986        0.3593545441971546    
     1.709447267446788        0.3549979810101566    
     1.715574318584590        0.3506848906376946    
     1.721701369722392        0.3464150508368363    
     1.727828420860194        0.3421882329570552    
     1.733955471997996        0.3380042022564618    
     1.740082523135798        0.3338627182088070    
     1.746209574273600        0.3297635348007795    
     1.752336625411402        0.3257064008200259    
     1.758463676549205        0.3216910601343156    
     1.764590727687007        0.3177172519619658    
     1.770717778824809        0.3137847111337019    
     1.776844829962611        0.3098931683461013    
     1.782971881100413        0.3060423504072616    
     1.789098932238215        0.3022319804744357    
     1.795225983376017        0.2984617782838941    
     1.801353034513819        0.2947314603735597    
     1.807480085651621        0.2910407402983060    
     1.813607136789424        0.2873893288381687    
     1.819734187927226        0.2837769341996110    
     1.825861239065028        0.2802032622103052    
     1.831988290202830        0.2766680165072865    
     1.838115341340632        0.2731708987186818    
     1.844242392478434        0.2697116086394393    
     1.850369443616236        0.2662898444010120    
     1.856496494754038        0.2629053026351974    
     1.862623545891840        0.2595576786322147    
     1.868750597029642        0.2562466664934492    
     1.874877648167445        0.2529719592787246    
     1.881004699305246        0.2497332491483244    
     1.887131750443049        0.2465302274999847    
     1.893258801580851        0.2433625851009799    
     1.899385852718653        0.2402300122153879    
     1.905512903856455        0.2371321987266219    
     1.911639954994257        0.2340688342555405    
     1.917767006132059        0.2310396082740973    
     1.923894057269861        0.2280442102147142    
     1.930021108407663        0.2250823295754578    
     1.936148159545465        0.2221536560212415    
     1.942275210683268        0.2192578794810551    
     1.948402261821070        0.2163946902413819    
     1.954529312958872        0.2135637790359061    
     1.960656364096674        0.2107648371316349    
     1.966783415234476        0.2079975564115081    
     1.972910466372278        0.2052616294536185    
     1.979037517510080        0.2025567496071335    
     1.985164568647882        0.1998826110650139    
     1.991291619785684        0.1972389089336216    
     1.997418670923487        0.1946253392993401    
     2.003545722061289        0.1920415992922295    
     2.009672773199091        0.1894873871468596    
     2.015799824336893        0.1869624022603735    
     2.021926875474695        0.1844663452479363    
     2.028053926612497        0.1819989179955143    
     2.034180977750299        0.1795598237101812    
     2.040308028888101        0.1771487669679685    
     2.046435080025903        0.1747654537594289    
     2.052562131163706        0.1724095915327975    
     2.058689182301508        0.1700808892349994    
     2.064816233439310        0.1677790573504784    
     2.070943284577112        0.1655038079380342    
     2.077070335714914        0.1632548546655114    
     2.083197386852716        0.1610319128426087    
     2.089324437990518        0.1588346994517696    
     2.095451489128320        0.1566629331773432    
     2.101578540266122        0.1545163344328258    
     2.107705591403925        0.1523946253864728    
     2.113832642541726        0.1502975299852203    
     2.119959693679529        0.1482247739771113    
     2.126086744817331        0.1461760849320258    
     2.132213795955133        0.1441511922609877    
     2.138340847092935        0.1421498272340036    
     2.144467898230737        0.1401717229965902    
     2.150594949368539        0.1382166145848447    
     2.156722000506341        0.1362842389392480    
     2.162849051644144        0.1343743349172125    
     2.168976102781945        0.1324866433044656    
     2.175103153919748        0.1306209068252266    
     2.181230205057550        0.1287768701512217    
     2.187357256195352        0.1269542799096595    
     2.193484307333154        0.1251528846901503    
     2.199611358470956        0.1233724350506662    
     2.205738409608758        0.1216126835224239    
     2.211865460746560        0.1198733846139099    
     2.217992511884363        0.1181542948139788    
     2.224119563022164        0.1164551725941616    
     2.230246614159967        0.1147757784100241    
     2.236373665297769        0.1131158747018025    
     2.242500716435571        0.1114752258942483    
     2.248627767573373        0.1098535983957786    
     2.254754818711175        0.1082507605968718    
     2.260881869848977        0.1066664828677976    
     2.267008920986779        0.1051005375557066    
     2.273135972124581        0.1035526989810984    
     2.279263023262383        0.1020227434337054    
     2.285390074400186        0.1005104491677747    
     2.291517125537988        0.9901559639682615E-01
     2.297644176675790        0.9753796728788576E-01
     2.303771227813592        0.9607734595522167E-01
     2.309898278951394        0.9463351845359834E-01
     2.316025330089196        0.9320627277107951E-01
     2.322152381226998        0.9179539882139802E-01
     2.328279432364800        0.9040068843590672E-01
     2.334406483502602        0.8902193535512873E-01
     2.340533534640405        0.8765893521995460E-01
     2.346660585778207        0.8631148556246275E-01
     2.352787636916009        0.8497938579641599E-01
     2.358914688053811        0.8366243720738455E-01
     2.365041739191613        0.8236044294262969E-01
     2.371168790329415        0.8107320800066335E-01
     2.377295841467217        0.7980053922053149E-01
     2.383422892605019        0.7854224527084043E-01
     2.389549943742821        0.7729813663848363E-01
     2.395676994880624        0.7606802561723171E-01
     2.401804046018426        0.7485172629602944E-01
     2.407931097156228        0.7364905454711508E-01
     2.414058148294030        0.7245982801388322E-01
     2.420185199431832        0.7128386609861163E-01
     2.426312250569634        0.7012098995002654E-01
     2.432439301707436        0.6897102245066331E-01
     2.438566352845238        0.6783378820410745E-01
     2.444693403983040        0.6670911352198247E-01
     2.450820455120843        0.6559682641094863E-01
     2.456947506258645        0.6449675655949688E-01
     2.463074557396447        0.6340873532462739E-01
     2.469201608534249        0.6233259571842836E-01
     2.475328659672051        0.6126817239447235E-01
     2.481455710809853        0.6021530163424780E-01
     2.487582761947655        0.5917382133341165E-01
     2.493709813085457        0.5814357098798330E-01
     2.499836864223259        0.5712439168045115E-01
     2.505963915361062        0.5611612606574329E-01
     2.512090966498864        0.5511861835728202E-01
     2.518218017636666        0.5413171431286642E-01
     2.524345068774468        0.5315526122053248E-01
     2.530472119912270        0.5218910788434397E-01
     2.536599171050072        0.5123310461012626E-01
     2.542726222187874        0.5028710319122467E-01
     2.548853273325676        0.4935095689416872E-01
     2.554980324463478        0.4842452044433009E-01
     2.561107375601281        0.4750765001152142E-01
     2.567234426739082        0.4660020319557695E-01
     2.573361477876885        0.4570203901196589E-01
     2.579488529014687        0.4481301787733812E-01
     2.585615580152489        0.4393300159507443E-01
     2.591742631290291        0.4306185334081115E-01
     2.597869682428093        0.4219943764795883E-01
     2.603996733565895        0.4134562039325513E-01
     2.610123784703697        0.4050026878228249E-01
     2.616250835841500        0.3966325133500012E-01
     2.622377886979301        0.3883443787127603E-01
     2.628504938117104        0.3801369949641886E-01
     2.634631989254906        0.3720090858675346E-01
     2.640759040392708        0.3639593877518260E-01
     2.646886091530510        0.3559866493677378E-01
     2.653013142668312        0.3480896317436391E-01
     2.659140193806114        0.3402671080417974E-01
     2.665267244943916        0.3325178634149561E-01
     2.671394296081719        0.3248406948630497E-01
     2.677521347219520        0.3172344110902490E-01
     2.683648398357322        0.3096978323622839E-01
     2.689775449495125        0.3022297903641823E-01
     2.695902500632927        0.2948291280581905E-01
     2.702029551770729        0.2874946995421586E-01
     2.708156602908531        0.2802253699082989E-01
     2.714283654046333        0.2730200151022577E-01
     2.720410705184135        0.2658775217828921E-01
     2.726537756321937        0.2587967871820960E-01
     2.732664807459739        0.2517767189652711E-01
     2.738791858597541        0.2448162350922575E-01
     2.744918909735344        0.2379142636786671E-01
     2.751045960873146        0.2310697428579458E-01
     2.757173012010948        0.2242816206437489E-01
     2.763300063148750        0.2175488547927649E-01
     2.769427114286552        0.2108704126682533E-01
     2.775554165424354        0.2042452711275407E-01
     2.781681216562156        0.1976724177301934E-01
     2.787808267699958        0.1911508669966105E-01
     2.793935318837760        0.1846797325720107E-01
     2.800062369975563        0.1782583858387247E-01
     2.806189421113364        0.1718866713603610E-01
     2.812316472251167        0.1655651137150469E-01
     2.818443523388969        0.1592950641145055E-01
     2.824570574526771        0.1530787671446114E-01
     2.830697625664573        0.1469193525879324E-01
     2.836824676802375        0.1408207690862030E-01
     2.842951727940177        0.1347876789157335E-01
     2.849078779077979        0.1288253309450841E-01
     2.855205830215782        0.1229394250151509E-01
     2.861332881353583        0.1171359771248357E-01
     2.867459932491386        0.1114211915679766E-01
     2.873586983629188        0.1058013436912961E-01
     2.879714034766990        0.1002826751665555E-01
     2.885841085904792        0.9487130245455602E-02
     2.891968137042594        0.8957313834366296E-02
     2.898095188180396        0.8439382595438706E-02
     2.904222239318198        0.7933868431925449E-02
     2.910349290456001        0.7441266450633870E-02
     2.916476341593802        0.6962031520617212E-02
     2.922603392731605        0.6496575671103582E-02
     2.928730443869407        0.6045266225807431E-02
     2.934857495007209        0.5608424576955336E-02
     2.940984546145011        0.5186325509085711E-02
     2.947111597282813        0.4779196989431366E-02
     2.953238648420615        0.4387220347769354E-02
     2.959365699558417        0.4010530773595586E-02
     2.965492750696219        0.3649218061804516E-02
     2.971619801834021        0.3303327539144200E-02
     2.977746852971824        0.2972861101459754E-02
     2.983873904109626        0.2657778284582584E-02
     2.990000955247428        0.2357997276707931E-02
     2.996128006385230        0.2073395751998874E-02
     3.002255057523032        0.1803811353976944E-02
     3.008382108660834        0.1549041563184320E-02
     3.014509159798636        0.1308842504859015E-02
     3.020636210936438        0.1082925894884093E-02
     3.026763262074240        0.8709525552647076E-03
     3.032890313212043        0.6725191241808425E-03
     3.039017364349845        0.4871297630175324E-03
     3.045144415487647        0.3141292695284446E-03
     3.051271466625449        0.1525088911046335E-03
     3.057398517763251         0.000000000000000    
  0  5  1  0  2.000000   #orbital l, n, z, is_polarized, population
 500    0.1503900777949353E-01     7.504464881967273     # npts, delta, cutoff
     0.000000000000000        0.8294099633661528E-01
    0.1503900777949353E-01    0.8325239265225345E-01
    0.3007801555898706E-01    0.8419006113461139E-01