Executable      : siesta
Version         : 5.4.2
Architecture    : x86_64
Compiler version: GNU-14.3.0
Compiler flags  : -march=nocona -mtune=haswell -ftree-vectorize -fPIC -fstack-protector-strong -fno-plt -O2 -ffunction-sections -pipe -isystem <prefix>/include -I<prefix>/_build_env/include -fdebug-prefix-map=<prefix>/work=/usr/local/src/conda/siesta-5.4.2 -fdebug-prefix-map=<prefix>=/usr/local/src/conda-prefix -I<prefix>/lib -fallow-argument-mismatch -O3
Parallelisations: none
NetCDF support
NetCDF-4 support
Lua support
DFT-D3 support

Runtime information:
* Directory : /home/UAB/1673794/Documents/run
* Running in serial mode.
>> Start of run:  16-JUN-2026  15:59:19

                           *********************** 
                           *  WELCOME TO SIESTA  * 
                           *********************** 

 NOTE: Siesta V5 introduces some new defaults for basis-set generation
 NOTE: which might lead to slightly different numerical results.
 NOTE: Please see the manual for full details and compatibility measures.


reinit: Reading from file relaxation.fdf

reinit: -----------------------------------------------------------------------
reinit: System Name: 
reinit: -----------------------------------------------------------------------
reinit: System Label: relaxation
reinit: -----------------------------------------------------------------------

initatom: Reading input for the pseudopotentials and atomic orbitals ----------
Species number:   1 Atomic number:   56 Label: Ba
Species number:   2 Atomic number:   22 Label: Ti
Species number:   3 Atomic number:    8 Label: O

Ground state valence configuration (from tables):   6s02  6p00  5d00  4f00
Ground state valence configuration (from tables):   4s02  4p00  3d02  4f00
Ground state valence configuration (from tables):   2s02  2p04  3d00  4f00

---- Processing specs for species: Ba
Reading pseudopotential information in PSML from:
  Ba.psml
PSML file version: 1.1
Using libxc ids:  101 130
GGA--PBE XC_GGA_X_PBE--XC_GGA_C_PBE pb
PSML uuid: dc4dcbf0-c73a-11ed-4fa9-74e79cfeb140
Semicore shell(s) with  8 electrons included in the valence for Ba

---- Processing specs for species: Ti
Reading pseudopotential information in PSML from:
  Ti.psml
PSML file version: 1.1
Using libxc ids:  101 130
GGA--PBE XC_GGA_X_PBE--XC_GGA_C_PBE pb
PSML uuid: caed23e0-be41-11e7-4603-0bd897f88bea
Semicore shell(s) with  8 electrons included in the valence for Ti

---- Processing specs for species: O
Reading pseudopotential information in PSML from:
  O.psml
PSML file version: 1.1
Using libxc ids:  101 130
GGA--PBE XC_GGA_X_PBE--XC_GGA_C_PBE pb
PSML uuid: 3cff85a0-be41-11e7-6c5c-1b1fe64d18ef

---- Pseudopotential check for Ba

Pseudized shells:
5s( 2.00) rc: 1.96
5p( 6.00) rc: 1.80
5d( 0.00) rc: 1.90
4f( 0.00) rc: 2.11
Valence configuration for ps generation: 5s:5p:6s: Total charge:  10.000000
Semicore shell(s): 5s 5p
Fallback to non-perturbative polarization scheme for Ba
Please see the manual if this is not desired in principle

---- Pseudopotential check for Ti

Pseudized shells:
3s( 2.00) rc: 1.36
3p( 6.00) rc: 1.31
3d( 2.00) rc: 1.66
Valence configuration for ps generation: 3s:3p:3d:4s: Total charge:  12.000000
Semicore shell(s): 3s 3p
Fallback to non-perturbative polarization scheme for Ti
Please see the manual if this is not desired in principle

---- Pseudopotential check for O 

Pseudized shells:
2s( 2.00) rc: 1.36
2p( 4.00) rc: 1.46
3d( 0.00) rc: 1.26
Valence configuration for ps generation: 2s:2p: Total charge:   6.000000
For Ba, standard SIESTA heuristics set lmxkb to 2
 (one more than the basis l, including polarization orbitals).
Use PS.lmax or PS.KBprojectors blocks to override.
For Ti, standard SIESTA heuristics set lmxkb to 3
 (one more than the basis l, including polarization orbitals).
Use PS.lmax or PS.KBprojectors blocks to override.
For O, standard SIESTA heuristics set lmxkb to 3
 (one more than the basis l, including polarization orbitals).
Use PS.lmax or PS.KBprojectors blocks to override.
Ti pseudopotential only contains V_ls up to l=2 -- lmxkb reset.
O pseudopotential only contains V_ls up to l=2 -- lmxkb reset.

<basis_specs>
===============================================================================
Ba                   Z=  56    Mass=  137.33        Charge= 0.17977+309
Lmxo=1 Lmxkb= 2    BasisType=split      Semic=T
L=0  Nsemic=1  Cnfigmx=6
          i=1  nzeta=1  polorb=0  (5s)  (semicore shell)
            splnorm:   0.15000    
               vcte:    40.000    
               rinn:  -0.90000    
               qcoe:    0.0000    
               qyuk:    0.0000    
               qwid:   0.10000E-01
                rcs:    0.0000    
            lambdas:    1.0000    
          i=2  nzeta=2  polorb=0  (6s)  (to be polarized non-perturbatively)
            splnorm:   0.15000    
               vcte:    40.000    
               rinn:  -0.90000    
               qcoe:    0.0000    
               qyuk:    0.0000    
               qwid:   0.10000E-01
                rcs:    0.0000      0.0000    
            lambdas:    1.0000      1.0000    
L=1  Nsemic=1  Cnfigmx=6
          i=1  nzeta=1  polorb=0  (5p)  (semicore shell)
            splnorm:   0.15000    
               vcte:    40.000    
               rinn:  -0.90000    
               qcoe:    0.0000    
               qyuk:    0.0000    
               qwid:   0.10000E-01
                rcs:    0.0000    
            lambdas:    1.0000    
          i=2  nzeta=1  polorb=0  (6p)  (non-perturbative polarization shell)
            splnorm:   0.15000    
               vcte:    40.000    
               rinn:  -0.90000    
               qcoe:    0.0000    
               qyuk:    0.0000    
               qwid:   0.10000E-01
                rcs:    0.0000    
            lambdas:    1.0000    
-------------------------------------------------------------------------------
L=0  Nkbl=2  erefs: 0.17977+309 0.17977+309
L=1  Nkbl=2  erefs: 0.17977+309 0.17977+309
L=2  Nkbl=1  erefs: 0.17977+309
===============================================================================
</basis_specs>

Using PAO.SplitTailNorm
atom: Called for Ba                    (Z =  56)
Maximum radius (at nrval) set to   50.00000 8518

read_vps: Pseudopotential generation method:
read_vps: ONCVPSP-4.Hamann's oncvpsp                        
Valence charge in pseudo generation:   10.00000

read_vps: Pseudopotential includes a core correction:
read_vps: Pseudo-core for xc-correction

xc_check: Exchange-correlation functional:
xc_check: GGA Perdew, Burke & Ernzerhof 1996
Got Vlocal (oncv-fit) from psml data
Choosing vlocal chloc cutoff:  4.771861
qtot up to nchloc:    9.99576283
atom: Maximum radius for chlocal:    4.77186
atom: Maximum radius for r*vlocal+2*Zval:    4.77186
Reading KB projs from Ba psml data
Using scalar-relativistic projectors in PSML file

PSML: Kleinman-Bylander projectors: 
   l= 0   rc=  1.973434   Ekb= 13.024145
   l= 0   rc=  1.973434   Ekb=  1.256320
   l= 1   rc=  0.000010   Ekb=  0.000000
   l= 1   rc=  0.000010   Ekb=  0.000000
   l= 2   rc=  0.000010   Ekb=  0.000000
   l= 2   rc=  1.813631   Ekb= 10.658512

PSML: Total number of  Kleinman-Bylander projectors:  18
atom: -------------------------------------------------------------------------

atom: SANKEY-TYPE ORBITALS:
atom: Selected multiple-zeta basis: split     

SPLIT: Orbitals with angular momentum L= 0

SPLIT: Basis orbitals for state 5s

SPLIT: PAO cut-off radius determined from an
SPLIT: energy shift=  0.022050 Ry
Split based on tail norm

   izeta = 1
                 lambda =    1.000000
                     rc =    3.684443
                 energy =   -2.450067
                kinetic =    1.222084
    potential(screened) =   -3.672152
       potential(ionic) =  -11.606558

SPLIT: Basis orbitals for state 6s

SPLIT: PAO cut-off radius determined from an
SPLIT: energy shift=  0.022050 Ry
Split based on tail norm

   izeta = 1
                 lambda =    1.000000
                     rc =    8.445607
                 energy =   -0.217073
                kinetic =    0.529942
    potential(screened) =   -0.747014
       potential(ionic) =   -5.312926

   izeta = 2
                 rmatch =    6.741940
              splitnorm =    0.150000
                 energy =    0.166466
                kinetic =    0.928334
    potential(screened) =   -0.761868
       potential(ionic) =   -6.241291

SPLIT: Orbitals with angular momentum L= 1

SPLIT: Basis orbitals for state 5p

SPLIT: PAO cut-off radius determined from an
SPLIT: energy shift=  0.022050 Ry
Split based on tail norm

   izeta = 1
                 lambda =    1.000000
                     rc =    4.299534
                 energy =   -1.352293
                kinetic =    1.733956
    potential(screened) =   -3.086250
       potential(ionic) =  -10.630106

SPLIT: Basis orbitals for state 6p
SPLIT: Non-perturbative polarization orbs for state 6s
SPLIT: rc(1st zeta) (re)set to: 8.4456 (expansion factor: 1.0000)
Split based on tail norm

   izeta = 1
                 lambda =    1.000000
                     rc =    8.445607
                 energy =   -0.009499
                kinetic =    0.621726
    potential(screened) =   -0.631226
       potential(ionic) =   -4.747517
atom: Total number of Sankey-type orbitals:  9

atm_pop: Valence configuration (for local Pseudopot. screening):
 5s( 2.00) 6s( 2.00)                                                  
 5p( 6.00) 6p( 0.00)                                                  
Vna: chval, zval:   10.00000  10.00000

Vna:  Cut-off radius for the neutral-atom potential:   8.445607
comcore: Pseudo-core radius Rcore=  3.528949

atom: _________________________________________________________________________

<basis_specs>
===============================================================================
Ti                   Z=  22    Mass=  47.867        Charge= 0.17977+309
Lmxo=2 Lmxkb= 2    BasisType=split      Semic=T
L=0  Nsemic=1  Cnfigmx=4
          i=1  nzeta=1  polorb=0  (3s)  (semicore shell)
            splnorm:   0.15000    
               vcte:    40.000    
               rinn:  -0.90000    
               qcoe:    0.0000    
               qyuk:    0.0000    
               qwid:   0.10000E-01
                rcs:    0.0000    
            lambdas:    1.0000    
          i=2  nzeta=2  polorb=0  (4s)  (to be polarized non-perturbatively)
            splnorm:   0.15000    
               vcte:    40.000    
               rinn:  -0.90000    
               qcoe:    0.0000    
               qyuk:    0.0000    
               qwid:   0.10000E-01
                rcs:    0.0000      0.0000    
            lambdas:    1.0000      1.0000    
L=1  Nsemic=1  Cnfigmx=4
          i=1  nzeta=1  polorb=0  (3p)  (semicore shell)
            splnorm:   0.15000    
               vcte:    40.000    
               rinn:  -0.90000    
               qcoe:    0.0000    
               qyuk:    0.0000    
               qwid:   0.10000E-01
                rcs:    0.0000    
            lambdas:    1.0000    
          i=2  nzeta=1  polorb=0  (4p)  (non-perturbative polarization shell)
            splnorm:   0.15000    
               vcte:    40.000    
               rinn:  -0.90000    
               qcoe:    0.0000    
               qyuk:    0.0000    
               qwid:   0.10000E-01
                rcs:    0.0000    
            lambdas:    1.0000    
L=2  Nsemic=0  Cnfigmx=3
          i=1  nzeta=2  polorb=0  (3d)
            splnorm:   0.15000    
               vcte:    40.000    
               rinn:  -0.90000    
               qcoe:    0.0000    
               qyuk:    0.0000    
               qwid:   0.10000E-01
                rcs:    0.0000      0.0000    
            lambdas:    1.0000      1.0000    
-------------------------------------------------------------------------------
L=0  Nkbl=2  erefs: 0.17977+309 0.17977+309
L=1  Nkbl=2  erefs: 0.17977+309 0.17977+309
L=2  Nkbl=1  erefs: 0.17977+309
===============================================================================
</basis_specs>

Using PAO.SplitTailNorm
atom: Called for Ti                    (Z =  22)
Maximum radius (at nrval) set to   50.00000 8518

read_vps: Pseudopotential generation method:
read_vps: ONCVPSP-3.Hamann's oncvpsp                        
Valence charge in pseudo generation:   12.00000

read_vps: Pseudopotential includes a core correction:
read_vps: Pseudo-core for xc-correction

xc_check: Exchange-correlation functional:
xc_check: GGA Perdew, Burke & Ernzerhof 1996
Got Vlocal (oncv-fit) from psml data
Choosing vlocal chloc cutoff:  3.029916
qtot up to nchloc:   12.00014688
atom: Maximum radius for chlocal:    3.02992
atom: Maximum radius for r*vlocal+2*Zval:    3.02992
Reading KB projs from Ti psml data
Using scalar-relativistic projectors in PSML file

PSML: Kleinman-Bylander projectors: 
   l= 0   rc=  1.375180   Ekb= 22.724697
   l= 0   rc=  1.375180   Ekb=  2.527278
   l= 1   rc=  1.326200   Ekb=  3.950805
   l= 1   rc=  1.327537   Ekb= -0.169333
   l= 2   rc=  1.683555   Ekb=-10.372181
   l= 2   rc=  1.683555   Ekb= -2.954901

PSML: Total number of  Kleinman-Bylander projectors:  18
atom: -------------------------------------------------------------------------

atom: SANKEY-TYPE ORBITALS:
atom: Selected multiple-zeta basis: split     

SPLIT: Orbitals with angular momentum L= 0

SPLIT: Basis orbitals for state 3s

SPLIT: PAO cut-off radius determined from an
SPLIT: energy shift=  0.022050 Ry
Split based on tail norm

   izeta = 1
                 lambda =    1.000000
                     rc =    2.635420
                 energy =   -4.579527
                kinetic =    2.326942
    potential(screened) =   -6.906469
       potential(ionic) =  -23.072621

SPLIT: Basis orbitals for state 4s

SPLIT: PAO cut-off radius determined from an
SPLIT: energy shift=  0.022050 Ry
Split based on tail norm

   izeta = 1
                 lambda =    1.000000
                     rc =    6.843982
                 energy =   -0.314441
                kinetic =    0.796941
    potential(screened) =   -1.111382
       potential(ionic) =   -8.916637

   izeta = 2
                 rmatch =    5.301264
              splitnorm =    0.150000
                 energy =   -0.140155
                kinetic =    1.418596
    potential(screened) =   -1.558752
       potential(ionic) =  -10.896893

SPLIT: Orbitals with angular momentum L= 1

SPLIT: Basis orbitals for state 3p

SPLIT: PAO cut-off radius determined from an
SPLIT: energy shift=  0.022050 Ry
Split based on tail norm

   izeta = 1
                 lambda =    1.000000
                     rc =    2.931236
                 energy =   -2.832213
                kinetic =    5.021608
    potential(screened) =   -7.853821
       potential(ionic) =  -23.570229

SPLIT: Basis orbitals for state 4p
SPLIT: Non-perturbative polarization orbs for state 4s
SPLIT: rc(1st zeta) (re)set to: 6.8440 (expansion factor: 1.0000)
Split based on tail norm

   izeta = 1
                 lambda =    1.000000
                     rc =    6.843982
                 energy =   -0.022664
                kinetic =    0.981182
    potential(screened) =   -1.003846
       potential(ionic) =   -7.925992

SPLIT: Orbitals with angular momentum L= 2

SPLIT: Basis orbitals for state 3d

SPLIT: PAO cut-off radius determined from an
SPLIT: energy shift=  0.022050 Ry
Split based on tail norm

   izeta = 1
                 lambda =    1.000000
                     rc =    4.556878
                 energy =   -0.289178
                kinetic =    6.761259
    potential(screened) =   -7.050436
       potential(ionic) =  -20.805830

   izeta = 2
                 rmatch =    3.163483
              splitnorm =    0.150000
                 energy =   -0.141333
                kinetic =    8.704185
    potential(screened) =   -8.845518
       potential(ionic) =  -23.898466
atom: Total number of Sankey-type orbitals: 19

atm_pop: Valence configuration (for local Pseudopot. screening):
 3s( 2.00) 4s( 2.00)                                                  
 3p( 6.00) 4p( 0.00)                                                  
 3d( 2.00)                                                            
Vna: chval, zval:   12.00000  12.00000

Vna:  Cut-off radius for the neutral-atom potential:   6.843982
comcore: Pseudo-core radius Rcore=  1.766828

atom: _________________________________________________________________________

<basis_specs>
===============================================================================
O                    Z=   8    Mass=  15.999        Charge= 0.17977+309
Lmxo=2 Lmxkb= 2    BasisType=split      Semic=F
L=0  Nsemic=0  Cnfigmx=2
          i=1  nzeta=2  polorb=0  (2s)
            splnorm:   0.15000    
               vcte:    40.000    
               rinn:  -0.90000    
               qcoe:    0.0000    
               qyuk:    0.0000    
               qwid:   0.10000E-01
                rcs:    0.0000      0.0000    
            lambdas:    1.0000      1.0000    
L=1  Nsemic=0  Cnfigmx=2
          i=1  nzeta=2  polorb=1  (2p)  (to be polarized perturbatively)
            splnorm:   0.15000    
               vcte:    40.000    
               rinn:  -0.90000    
               qcoe:    0.0000    
               qyuk:    0.0000    
               qwid:   0.10000E-01
                rcs:    0.0000      0.0000    
            lambdas:    1.0000      1.0000    
L=2  Nsemic=0  Cnfigmx=3
          i=1  nzeta=0  polorb=0  (3d)  (perturbative polarization orbital) (from 2p)
-------------------------------------------------------------------------------
L=0  Nkbl=1  erefs: 0.17977+309
L=1  Nkbl=1  erefs: 0.17977+309
L=2  Nkbl=1  erefs: 0.17977+309
===============================================================================
</basis_specs>

Using PAO.SplitTailNorm
atom: Called for O                     (Z =   8)
Maximum radius (at nrval) set to   50.00000 8518

read_vps: Pseudopotential generation method:
read_vps: ONCVPSP-3.Hamann's oncvpsp                        
Valence charge in pseudo generation:    6.00000

read_vps: Pseudopotential includes a core correction:
read_vps: Pseudo-core for xc-correction

xc_check: Exchange-correlation functional:
xc_check: GGA Perdew, Burke & Ernzerhof 1996
Got Vlocal (oncv-fit) from psml data
Choosing vlocal chloc cutoff:  6.020499
qtot up to nchloc:    6.00001015
atom: Maximum radius for chlocal:    6.02050
atom: Maximum radius for r*vlocal+2*Zval:    6.02050
Reading KB projs from O psml data
Using scalar-relativistic projectors in PSML file

PSML: Kleinman-Bylander projectors: 
   l= 0   rc=  1.372412   Ekb= 12.113471
   l= 0   rc=  1.372412   Ekb=  1.648048
   l= 1   rc=  1.474132   Ekb= -9.434259
   l= 1   rc=  1.474132   Ekb= -2.298541
   l= 2   rc=  1.277664   Ekb= -2.663910

PSML: Total number of  Kleinman-Bylander projectors:  13
atom: -------------------------------------------------------------------------

atom: SANKEY-TYPE ORBITALS:
atom: Selected multiple-zeta basis: split     

SPLIT: Orbitals with angular momentum L= 0

SPLIT: Basis orbitals for state 2s

SPLIT: PAO cut-off radius determined from an
SPLIT: energy shift=  0.022050 Ry
Split based on tail norm

   izeta = 1
                 lambda =    1.000000
                     rc =    3.214667
                 energy =   -1.737143
                kinetic =    1.647372
    potential(screened) =   -3.384514
       potential(ionic) =  -11.335845

   izeta = 2
                 rmatch =    2.206279
              splitnorm =    0.150000
                 energy =   -1.248930
                kinetic =    2.868486
    potential(screened) =   -4.117415
       potential(ionic) =  -12.788572

SPLIT: Orbitals with angular momentum L= 1

SPLIT: Basis orbitals for state 2p

SPLIT: PAO cut-off radius determined from an
SPLIT: energy shift=  0.022050 Ry
Split based on tail norm

   izeta = 1
                 lambda =    1.000000
                     rc =    3.819866
                 energy =   -0.639970
                kinetic =    4.771237
    potential(screened) =   -5.411207
       potential(ionic) =  -13.142963

   izeta = 2
                 rmatch =    2.601252
              splitnorm =    0.150000
                 energy =   -0.382093
                kinetic =    6.846164
    potential(screened) =   -7.228258
       potential(ionic) =  -15.727266

POLgen: Perturbative polarization orbital with L=  2

POLgen: Polarization orbital for state 2p
Split based on tail norm

   izeta = 1
                     rc =    3.819866
                 energy =    2.500658
                kinetic =    4.605602
    potential(screened) =   -2.104944
       potential(ionic) =   -8.455031
atom: Total number of Sankey-type orbitals: 13

atm_pop: Valence configuration (for local Pseudopot. screening):
 2s( 2.00)                                                            
 2p( 4.00)                                                            
 3d( 0.00)                                                            
Vna: chval, zval:    6.00000   6.00000

Vna:  Cut-off radius for the neutral-atom potential:   3.819866
comcore: Pseudo-core radius Rcore=  1.354557

atom: _________________________________________________________________________

prinput: Basis input 

PAO.BasisType split     

%block ChemicalSpeciesLabel
    1   56 Ba                      # Species index, atomic number, species label
    2   22 Ti                      # Species index, atomic number, species label
    3    8 O                       # Species index, atomic number, species label
%endblock ChemicalSpeciesLabel

%block PAO.Basis                 # Define Basis set
# WARNING: This information might be incomplete!
Ba                    4                    # Species label, number of l-shells
 n=5   0   1                         # n, l, Nzeta 
   3.684   
   1.000   
 n=6   0   2                         # n, l, Nzeta 
   8.446      6.742   
   1.000      1.000   
 n=5   1   1                         # n, l, Nzeta 
   4.300   
   1.000   
 n=6   1   1                         # n, l, Nzeta 
   8.446   
   1.000   
Ti                    5                    # Species label, number of l-shells
 n=3   0   1                         # n, l, Nzeta 
   2.635   
   1.000   
 n=4   0   2                         # n, l, Nzeta 
   6.844      5.301   
   1.000      1.000   
 n=3   1   1                         # n, l, Nzeta 
   2.931   
   1.000   
 n=4   1   1                         # n, l, Nzeta 
   6.844   
   1.000   
 n=3   2   2                         # n, l, Nzeta 
   4.557      3.163   
   1.000      1.000   
O                     2                    # Species label, number of l-shells
 n=2   0   2                         # n, l, Nzeta 
   3.215      2.206   
   1.000      1.000   
 n=2   1   2 P   1                   # n, l, Nzeta, Polarization, NzetaPol
   3.820      2.601   
   1.000      1.000   
%endblock PAO.Basis

prinput: ----------------------------------------------------------------------

Dumping basis to NetCDF file Ba.ion.nc
Dumping basis to NetCDF file Ti.ion.nc
Dumping basis to NetCDF file O.ion.nc
coor:   Atomic-coordinates input format  =     Cartesian coordinates
coor:                                          (in Angstroms)

siesta: Atomic coordinates (Bohr) and species
siesta:      0.00001   0.00008   9.79701  1        1
siesta:      0.00001   4.91461   4.86998  1        2
siesta:      3.52535  -0.00002   4.88891  2        3
siesta:      3.52535   4.91473   9.81588  2        4
siesta:      3.52536   2.54169   2.67307  3        5
siesta:      3.52536   7.28760   2.67309  3        6
siesta:      3.52536   7.45643   7.60008  3        7
siesta:      3.52536   2.37298   7.60009  3        8
siesta:     -0.00000   0.00004   5.22629  3        9
siesta:     -0.00000   4.91462   0.29928  3       10

siesta: System type = molecule  

initatomlists: Number of atoms, orbitals, and projectors:     10   134   150

coxmol: Writing XMOL coordinates into file relaxation.xyz                                                                                                                                                                                                                      

siesta: ******************** Simulation parameters ****************************
siesta:
siesta: The following are some of the parameters of the simulation.
siesta: A complete list of the parameters used, including default values,
siesta: can be found in file out.fdf
siesta:
redata: Spin configuration                          = none
redata: Number of spin components                   = 1
redata: Time-Reversal Symmetry                      = T
redata: Spin spiral                                 = F
redata: Long output                                 =   F
redata: Number of Atomic Species                    =        3
redata: Charge density info will appear in .RHO file
redata: Write Mulliken charges (when)               = none
redata: Write Mulliken Pop.                         = NO
redata: Write Hirshfeld charges (when)              = none
redata: Write Voronoi charges (when)                = none
redata: Write spin charge (when)                    = none
redata: Matel table size (NRTAB)                    =     1024
redata: Mesh Cutoff                                 =   300.0000 Ry
redata: Net charge of the system                    =     0.0000 |e|
redata: Min. number of SCF Iter                     =        0
redata: Max. number of SCF Iter                     =     1000
redata: SCF convergence failure will abort job
redata: SCF mix quantity                            = Hamiltonian
redata: Mix DM or H after convergence               =   F
redata: Recompute H after scf cycle                 =   F
redata: Mix DM in first SCF step                    =   T
redata: Write Pulay info on disk                    =   F
redata: New DM Occupancy tolerance                  = 0.000000000001
redata: No kicks to SCF
redata: DM Mixing Weight for Kicks                  =     0.5000
redata: Require Harris convergence for SCF          =   F
redata: Harris energy tolerance for SCF             =     0.000100 eV
redata: Require DM convergence for SCF              =   T
redata: DM tolerance for SCF                        =     0.000100
redata: Require EDM convergence for SCF             =   F
redata: EDM tolerance for SCF                       =     0.001000 eV
redata: Require H convergence for SCF               =   T
redata: Hamiltonian tolerance for SCF               =     0.001000 eV
redata: Require (free) Energy convergence for SCF   =   F
redata: (free) Energy tolerance for SCF             =     0.000100 eV
redata: Using DFT-D3 dispersion                     =   F
redata: Using Saved Data (generic)                  =   F
redata: Use continuation files for DM               =   T
redata: Neglect nonoverlap interactions             =   F
redata: Method of Calculation                       = Diagonalization
redata: Electronic Temperature                      =   300.0000 K
redata: Fix the spin of the system                  =   F
redata: Max. number of TDED Iter                    =        1
redata: Number of TDED substeps                     =        3
redata: Dynamics option                             = CG coord. optimization
redata: Variable cell                               =   T
redata: Use continuation files for CG               =   F
redata: Max atomic displ per move                   =     0.1058 Ang
redata: Maximum number of optimization moves        =      100
redata: Force tolerance                             =     0.0400 eV/Ang
redata: Stress tolerance                            =     1.0000 GPa
mix.SCF: Pulay mixing                            = Pulay
mix.SCF:    Variant                              = stable
mix.SCF:    History steps                        = 2
mix.SCF:    Linear mixing weight                 =     0.020000
mix.SCF:    Mixing weight                        =     0.020000
mix.SCF:    SVD condition                        = 0.1000E-07
redata: Save all siesta data in one NC              =   F
redata: ***********************************************************************

%block SCF.Mixers
  Pulay
%endblock SCF.Mixers

%block SCF.Mixer.Pulay
  # Mixing method
  method pulay
  variant stable

  # Mixing options
  weight 0.0200
  weight.linear 0.0200
  history 2
%endblock SCF.Mixer.Pulay

DM_history_depth set to one: no extrapolation allowed by default for geometry relaxation
Size of DM history Fstack: 1
Total number of electrons:    80.000000
Total ionic charge:    80.000000
 Kpoints in:           18 . Kpoints trimmed:           14

siesta: k-grid: Number of k-points = 14
siesta: k-points from Monkhorst-Pack grid
siesta: k-cutoff (effective) =    17.798 Ang
siesta: k-point supercell and displacements
siesta: k-grid:     3     0     0      0.000
siesta: k-grid:     0     3     0      0.000
siesta: k-grid:     0     0     3      0.000

diag: Algorithm                                     = D&C
diag: Used triangular part                          = Lower
diag: Absolute tolerance                            =  0.100E-15
diag: Orthogonalization factor                      =  0.100E-05
diag: Memory factor                                 =  1.0000


ts: **************************************************************
ts: Save H and S matrices                           =    F
ts: Save TSHS files in MD/FC simulation             =    F
ts: Save DM and EDM matrices                        =    F
ts: Only save the overlap matrix S                  =    F
ts: **************************************************************

************************ Begin: TS CHECKS AND WARNINGS ************************
************************ End: TS CHECKS AND WARNINGS **************************


                     ====================================
                        Begin CG opt. move =      0
                     ====================================

outcell: Unit cell vectors (Ang):
       11.865541    0.000000    0.000000
        0.000000   13.945784    0.000000
        0.000000    0.000000   15.035964

outcell: Cell vector modules (Ang)   :   11.865541   13.945784   15.035964
outcell: Cell angles (23,13,12) (deg):     90.0000     90.0000     90.0000
outcell: Cell volume (Ang**3)        :   2488.0652
<dSpData1D:S at geom step 0
  <sparsity:sparsity for geom step 0
    nrows_g=134 nrows=134 sparsity=.8659 nnzs=15548, refcount: 7>
  <dData1D:(new from dSpData1D) n=15548, refcount: 1>
refcount: 1>
new_DM -- step:     1
Initializing Density Matrix...

Attempting to read DM from file... Failed...
DM filled with atomic data:
<dSpData2D:DM initialized from atoms
  <sparsity:sparsity for geom step 0
    nrows_g=134 nrows=134 sparsity=.8659 nnzs=15548, refcount: 8>
  <dData2D:DM n=15548 m=1, refcount: 1>
refcount: 1>
No. of atoms with KB's overlaping orbs in proc 0. Max # of overlaps:      10      93

InitMesh: MESH = 128 x 150 x 160 = 3072000
InitMesh: Mesh cutoff (required, used) =   300.000   312.953 Ry
New grid distribution [1]: sub = 2

stepf: Fermi-Dirac step function

siesta: Program's energy decomposition (eV):
siesta: Ebs     =     -1203.616241
siesta: Eions   =     11173.991398
siesta: Ena     =      1861.288057
siesta: Ekin    =      3621.617559
siesta: Enl     =      -391.774514
siesta: Eso     =         0.000000
siesta: Edftu   =         0.000000
siesta: DEna    =        49.606686
siesta: DUscf   =       140.498630
siesta: DUext   =         0.000000
siesta: Ex      =     -1462.158270
siesta: Ec      =      -105.148788
siesta: Exc     =     -1567.307058
siesta: EbV     =         0.000000
siesta: eta*DQ  =         0.000000
siesta: Emadel  =         0.000000
siesta: Emeta   =         0.000000
siesta: Emolmec =         0.000000
siesta: Ekinion =         0.000000
siesta: Eharris =     -7245.731401
siesta: Etot    =     -7460.062039
siesta: FreeEng =     -7460.062039

        iscf     Eharris(eV)        E_KS(eV)     FreeEng(eV)     dDmax    Ef(eV) dHmax(eV)
   scf:    1    -7245.731401    -7460.062039    -7460.062039  1.827272 -4.775403 40.520250
timer: Routine,Calls,Time,% = IterSCF        1       1.039  16.34
   scf:    2    -7475.667990    -7467.951065    -7467.951065  0.056531 -4.145197 38.710443
   scf:    3    -3113.206490    -6277.355583    -6277.355711  2.734244 -3.562142134.235211
   scf:    4    -7345.719037    -7550.770938    -7550.771118  2.769167 -2.626543 12.998308
   scf:    5    -7482.828166    -7537.707136    -7537.746534  1.548004 -2.444972 27.016903
   scf:    6    -7535.899150    -7556.142613    -7556.143492  1.550953 -2.504713 10.519013
   scf:    7    -7562.024324    -7559.238518    -7559.250260  0.058660 -2.469685  8.800616
   scf:    8    -7426.704940    -7524.648631    -7524.706087  1.322847 -2.458290 33.767203
   scf:    9    -7553.809536    -7563.060447    -7563.109790  1.168938 -2.452053  6.163481
   scf:   10    -7564.723799    -7564.067156    -7564.128460  0.106953 -2.455838  5.635850
   scf:   11    -7565.468432    -7564.853552    -7564.907360  0.079556 -2.476632  4.881589
   scf:   12    -7565.578289    -7565.668468    -7565.735431  0.147581 -2.503741  4.265989
   scf:   13    -7565.462325    -7565.872615    -7565.924015  0.146645 -2.509322  3.606691
   scf:   14    -7566.176507    -7566.065569    -7566.123831  0.056321 -2.509851  3.597106
   scf:   15    -7566.316187    -7566.197625    -7566.253742  0.016608 -2.515450  3.264396
   scf:   16    -7566.737688    -7566.575103    -7566.638182  0.072114 -2.528562  2.252573
   scf:   17    -7566.649081    -7566.712751    -7566.766353  0.080009 -2.539312  1.471756
   scf:   18    -7566.725843    -7566.756008    -7566.816530  0.057321 -2.533695  1.559327
   scf:   19    -7566.790707    -7566.775679    -7566.834885  0.011549 -2.534661  1.453927
   scf:   20    -7566.841622    -7566.811469    -7566.872667  0.022024 -2.533202  1.306483
   scf:   21    -7566.908581    -7566.877107    -7566.935565  0.023830 -2.537098  0.887597
   scf:   22    -7566.892496    -7566.901864    -7566.964649  0.043635 -2.535389  0.875430
   scf:   23    -7566.905562    -7566.907611    -7566.968558  0.018864 -2.537072  0.844126
   scf:   24    -7566.922081    -7566.915097    -7566.976603  0.006421 -2.537776  0.826738
   scf:   25    -7566.947931    -7566.932963    -7566.993740  0.006701 -2.540720  0.718383
   scf:   26    -7566.972259    -7566.957627    -7567.020949  0.029156 -2.543223  0.652298
   scf:   27    -7566.953700    -7566.959483    -7567.021028  0.018773 -2.544205  0.602603
   scf:   28    -7566.968296    -7566.964789    -7567.027331  0.010707 -2.544414  0.603174
   scf:   29    -7566.969253    -7566.967114    -7567.029448  0.002058 -2.544928  0.585733
   scf:   30    -7566.989258    -7566.978858    -7567.042271  0.012453 -2.546792  0.540264
   scf:   31    -7566.994968    -7566.989621    -7567.052064  0.010426 -2.549872  0.446550
   scf:   32    -7566.995977    -7566.995084    -7567.059117  0.016922 -2.550146  0.459544
   scf:   33    -7566.996425    -7566.996045    -7567.059618  0.005050 -2.550469  0.446441
   scf:   34    -7567.002041    -7566.999088    -7567.063010  0.003654 -2.551141  0.436983
   scf:   35    -7567.018200    -7567.009654    -7567.073542  0.005281 -2.554476  0.360850
   scf:   36    -7567.021452    -7567.017340    -7567.083102  0.018626 -2.556031  0.387046
   scf:   37    -7567.014732    -7567.016599    -7567.081550  0.008584 -2.555929  0.344860
   scf:   38    -7567.020055    -7567.018366    -7567.083662  0.003247 -2.556378  0.341194
   scf:   39    -7567.024709    -7567.021686    -7567.087059  0.001939 -2.557614  0.315244
   scf:   40    -7567.034164    -7567.028588    -7567.095622  0.014672 -2.559697  0.317059
   scf:   41    -7567.028111    -7567.029000    -7567.095354  0.007766 -2.560116  0.277063
   scf:   42    -7567.032185    -7567.030811    -7567.097832  0.006332 -2.560523  0.280329
   scf:   43    -7567.032170    -7567.031518    -7567.098512  0.000891 -2.560840  0.272742
   scf:   44    -7567.038000    -7567.034877    -7567.102781  0.007299 -2.562082  0.261629
   scf:   45    -7567.040607    -7567.038332    -7567.106390  0.003511 -2.563962  0.223191
   scf:   46    -7567.040755    -7567.040102    -7567.109157  0.009482 -2.564351  0.233609
   scf:   47    -7567.041018    -7567.040639    -7567.109545  0.002191 -2.564640  0.224694
   scf:   48    -7567.043621    -7567.042156    -7567.111570  0.003702 -2.565344  0.219768
   scf:   49    -7567.050074    -7567.046588    -7567.116940  0.005585 -2.568174  0.181848
   scf:   50    -7567.048159    -7567.048019    -7567.119485  0.010107 -2.568622  0.195698
   scf:   51    -7567.048696    -7567.048476    -7567.119725  0.002949 -2.568897  0.178882
   scf:   52    -7567.050215    -7567.049359    -7567.121011  0.002601 -2.569449  0.175777
   scf:   53    -7567.055640    -7567.052846    -7567.125771  0.006578 -2.572445  0.155069
   scf:   54    -7567.053328    -7567.053616    -7567.127516  0.008252 -2.572795  0.161869
   scf:   55    -7567.054241    -7567.054036    -7567.127753  0.002693 -2.573080  0.140920
   scf:   56    -7567.055071    -7567.054561    -7567.128625  0.001794 -2.573553  0.138558
   scf:   57    -7567.058574    -7567.056793    -7567.132144  0.006612 -2.576278  0.134108
   scf:   58    -7567.056716    -7567.057131    -7567.133313  0.005971 -2.576572  0.138142
   scf:   59    -7567.057612    -7567.057458    -7567.133467  0.002376 -2.576811  0.115339
   scf:   60    -7567.058000    -7567.057734    -7567.134022  0.001161 -2.577180  0.113731
   scf:   61    -7567.059852    -7567.058912    -7567.136212  0.006106 -2.579241  0.109950
   scf:   62    -7567.058688    -7567.059040    -7567.137098  0.004536 -2.579602  0.116663
   scf:   63    -7567.059360    -7567.059268    -7567.137118  0.002045 -2.579734  0.097010
   scf:   64    -7567.059516    -7567.059395    -7567.137460  0.001032 -2.580004  0.095851
   scf:   65    -7567.060353    -7567.059930    -7567.138640  0.004486 -2.581353  0.088481
   scf:   66    -7567.059648    -7567.059934    -7567.139302  0.003379 -2.581751  0.097314
   scf:   67    -7567.060176    -7567.060104    -7567.139256  0.001619 -2.581804  0.083434
   scf:   68    -7567.060208    -7567.060159    -7567.139479  0.000872 -2.582012  0.082513
   scf:   69    -7567.060595    -7567.060405    -7567.140116  0.003019 -2.582905  0.074590
   scf:   70    -7567.060100    -7567.060342    -7567.140588  0.002557 -2.583282  0.081234
   scf:   71    -7567.060550    -7567.060481    -7567.140534  0.001336 -2.583301  0.072983
   scf:   72    -7567.060515    -7567.060500    -7567.140687  0.000713 -2.583470  0.072209
   scf:   73    -7567.060721    -7567.060626    -7567.141048  0.002002 -2.584091  0.066334
   scf:   74    -7567.060336    -7567.060538    -7567.141381  0.001986 -2.584428  0.068495
   scf:   75    -7567.060721    -7567.060654    -7567.141336  0.001112 -2.584433  0.064633
   scf:   76    -7567.060654    -7567.060656    -7567.141444  0.000570 -2.584575  0.063971
   scf:   77    -7567.060785    -7567.060730    -7567.141661  0.001334 -2.585028  0.059477
   scf:   78    -7567.060473    -7567.060639    -7567.141898  0.001576 -2.585323  0.059874
   scf:   79    -7567.060798    -7567.060736    -7567.141863  0.000930 -2.585324  0.057808
   scf:   80    -7567.060720    -7567.060729    -7567.141943  0.000452 -2.585445  0.057238
   scf:   81    -7567.060817    -7567.060779    -7567.142079  0.000900 -2.585786  0.053726
   scf:   82    -7567.060561    -7567.060696    -7567.142251  0.001279 -2.586045  0.054991
   scf:   83    -7567.060832    -7567.060777    -7567.142225  0.000785 -2.586044  0.052143
   scf:   84    -7567.060753    -7567.060766    -7567.142285  0.000359 -2.586151  0.051652
   scf:   85    -7567.060832    -7567.060803    -7567.142374  0.000615 -2.586413  0.048867
   scf:   86    -7567.060622    -7567.060730    -7567.142502  0.001047 -2.586642  0.050795
   scf:   87    -7567.060847    -7567.060798    -7567.142482  0.000670 -2.586641  0.047455
   scf:   88    -7567.060772    -7567.060786    -7567.142529  0.000304 -2.586735  0.047851
   scf:   89    -7567.060840    -7567.060816    -7567.142589  0.000427 -2.586941  0.044828
   scf:   90    -7567.060665    -7567.060753    -7567.142686  0.000864 -2.587145  0.047163
   scf:   91    -7567.060854    -7567.060811    -7567.142671  0.000592 -2.587144  0.044268
   scf:   92    -7567.060783    -7567.060798    -7567.142708  0.000269 -2.587229  0.044656
   scf:   93    -7567.060843    -7567.060823    -7567.142749  0.000304 -2.587392  0.042137
   scf:   94    -7567.060698    -7567.060769    -7567.142825  0.000722 -2.587576  0.043996
   scf:   95    -7567.060857    -7567.060819    -7567.142813  0.000527 -2.587575  0.041458
   scf:   96    -7567.060791    -7567.060806    -7567.142843  0.000241 -2.587653  0.041843
   scf:   97    -7567.060845    -7567.060827    -7567.142872  0.000244 -2.587782  0.039733
   scf:   98    -7567.060723    -7567.060781    -7567.142932  0.000609 -2.587949  0.041215
   scf:   99    -7567.060858    -7567.060824    -7567.142922  0.000473 -2.587949  0.038964
   scf:  100    -7567.060797    -7567.060811    -7567.142947  0.000220 -2.588020  0.039354
   scf:  101    -7567.060845    -7567.060829    -7567.142968  0.000202 -2.588124  0.037576
   scf:  102    -7567.060743    -7567.060791    -7567.143016  0.000517 -2.588277  0.038757
   scf:  103    -7567.060859    -7567.060829    -7567.143008  0.000427 -2.588277  0.036739
   scf:  104    -7567.060801    -7567.060816    -7567.143029  0.000202 -2.588343  0.037138
   scf:  105    -7567.060846    -7567.060832    -7567.143044  0.000174 -2.588427  0.035633
   scf:  106    -7567.060759    -7567.060799    -7567.143083  0.000448 -2.588567  0.036571
   scf:  107    -7567.060859    -7567.060832    -7567.143077  0.000388 -2.588569  0.034742
   scf:  108    -7567.060805    -7567.060819    -7567.143095  0.000200 -2.588630  0.035153
   scf:  109    -7567.060846    -7567.060833    -7567.143106  0.000152 -2.588698  0.033873
   scf:  110    -7567.060773    -7567.060806    -7567.143138  0.000394 -2.588827  0.034613
   scf:  111    -7567.060860    -7567.060835    -7567.143133  0.000355 -2.588830  0.032937
   scf:  112    -7567.060809    -7567.060823    -7567.143149  0.000200 -2.588888  0.033366
   scf:  113    -7567.060846    -7567.060835    -7567.143156  0.000134 -2.588943  0.032270
   scf:  114    -7567.060784    -7567.060811    -7567.143183  0.000346 -2.589061  0.032847
   scf:  115    -7567.060861    -7567.060838    -7567.143179  0.000326 -2.589065  0.031297
   scf:  116    -7567.060811    -7567.060825    -7567.143193  0.000201 -2.589120  0.031745
   scf:  117    -7567.060847    -7567.060836    -7567.143199  0.000120 -2.589165  0.030800
   scf:  118    -7567.060794    -7567.060816    -7567.143221  0.000303 -2.589274  0.031244
   scf:  119    -7567.060862    -7567.060841    -7567.143218  0.000301 -2.589281  0.029796
   scf:  120    -7567.060814    -7567.060828    -7567.143230  0.000202 -2.589333  0.030267
   scf:  121    -7567.060847    -7567.060838    -7567.143234  0.000108 -2.589369  0.029444
   scf:  122    -7567.060802    -7567.060821    -7567.143253  0.000266 -2.589469  0.029779
   scf:  123    -7567.060862    -7567.060843    -7567.143250  0.000280 -2.589478  0.028414
   scf:  124    -7567.060816    -7567.060830    -7567.143261  0.000204 -2.589528  0.028908
   scf:  125    -7567.060848    -7567.060839    -7567.143264  0.000099 -2.589558  0.028183
   scf:  126    -7567.060809    -7567.060825    -7567.143280  0.000232 -2.589650  0.028430
   scf:  127    -7567.060863    -7567.060845    -7567.143278  0.000260 -2.589662  0.027131
   scf:  128    -7567.060818    -7567.060832    -7567.143288  0.000206 -2.589710  0.027651
   scf:  129    -7567.060848    -7567.060840    -7567.143291  0.000092 -2.589735  0.027004
   scf:  130    -7567.060815    -7567.060828    -7567.143304  0.000203 -2.589819  0.027178
   scf:  131    -7567.060864    -7567.060847    -7567.143303  0.000243 -2.589833  0.025933
   scf:  132    -7567.060819    -7567.060834    -7567.143311  0.000209 -2.589879  0.026478
   scf:  133    -7567.060849    -7567.060842    -7567.143313  0.000087 -2.589900  0.025894
   scf:  134    -7567.060820    -7567.060831    -7567.143324  0.000177 -2.589978  0.026010
   scf:  135    -7567.060865    -7567.060849    -7567.143324  0.000228 -2.589995  0.024807
   scf:  136    -7567.060821    -7567.060836    -7567.143332  0.000212 -2.590040  0.025377
   scf:  137    -7567.060850    -7567.060843    -7567.143333  0.000083 -2.590057  0.024841
   scf:  138    -7567.060825    -7567.060834    -7567.143343  0.000154 -2.590128  0.024911
   scf:  139    -7567.060866    -7567.060851    -7567.143343  0.000214 -2.590149  0.023740
   scf:  140    -7567.060822    -7567.060838    -7567.143350  0.000215 -2.590192  0.024335
   scf:  141    -7567.060851    -7567.060844    -7567.143351  0.000081 -2.590207  0.023836
   scf:  142    -7567.060829    -7567.060837    -7567.143359  0.000134 -2.590271  0.023870
   scf:  143    -7567.060867    -7567.060853    -7567.143359  0.000201 -2.590296  0.022725
   scf:  144    -7567.060823    -7567.060839    -7567.143366  0.000218 -2.590339  0.023342
   scf:  145    -7567.060852    -7567.060846    -7567.143367  0.000080 -2.590350  0.022872
   scf:  146    -7567.060833    -7567.060839    -7567.143373  0.000116 -2.590409  0.022879
   scf:  147    -7567.060868    -7567.060855    -7567.143374  0.000189 -2.590438  0.021754
   scf:  148    -7567.060825    -7567.060840    -7567.143380  0.000220 -2.590480  0.022389
   scf:  149    -7567.060853    -7567.060847    -7567.143381  0.000079 -2.590489  0.021942
   scf:  150    -7567.060836    -7567.060842    -7567.143386  0.000100 -2.590542  0.021928
   scf:  151    -7567.060869    -7567.060856    -7567.143388  0.000178 -2.590575  0.020819
   scf:  152    -7567.060826    -7567.060842    -7567.143393  0.000223 -2.590617  0.021469
   scf:  153    -7567.060854    -7567.060848    -7567.143394  0.000079 -2.590624  0.021042
   scf:  154    -7567.060839    -7567.060844    -7567.143398  0.000086 -2.590672  0.021013
   scf:  155    -7567.060870    -7567.060858    -7567.143400  0.000168 -2.590708  0.019916
   scf:  156    -7567.060827    -7567.060843    -7567.143405  0.000224 -2.590750  0.020578
   scf:  157    -7567.060856    -7567.060849    -7567.143405  0.000079 -2.590755  0.020166
   scf:  158    -7567.060842    -7567.060846    -7567.143409  0.000074 -2.590798  0.020127
   scf:  159    -7567.060871    -7567.060859    -7567.143411  0.000158 -2.590839  0.019042
   scf:  160    -7567.060828    -7567.060844    -7567.143416  0.000225 -2.590881  0.019711
   scf:  161    -7567.060857    -7567.060851    -7567.143416  0.000080 -2.590884  0.019314
   scf:  162    -7567.060844    -7567.060847    -7567.143419  0.000064 -2.590923  0.019267
   scf:  163    -7567.060872    -7567.060860    -7567.143421  0.000149 -2.590967  0.018192
   scf:  164    -7567.060829    -7567.060845    -7567.143426  0.000225 -2.591009  0.018864
   scf:  165    -7567.060858    -7567.060852    -7567.143426  0.000081 -2.591010  0.018481
   scf:  166    -7567.060846    -7567.060849    -7567.143428  0.000055 -2.591045  0.018431
   scf:  167    -7567.060872    -7567.060861    -7567.143430  0.000141 -2.591093  0.017366
   scf:  168    -7567.060830    -7567.060847    -7567.143435  0.000225 -2.591136  0.018036
   scf:  169    -7567.060859    -7567.060853    -7567.143434  0.000081 -2.591135  0.017668
   scf:  170    -7567.060848    -7567.060851    -7567.143437  0.000047 -2.591166  0.017616
   scf:  171    -7567.060873    -7567.060862    -7567.143439  0.000132 -2.591217  0.016562
   scf:  172    -7567.060831    -7567.060848    -7567.143443  0.000223 -2.591260  0.017227
   scf:  173    -7567.060860    -7567.060854    -7567.143442  0.000081 -2.591257  0.016873
   scf:  174    -7567.060850    -7567.060852    -7567.143444  0.000040 -2.591285  0.016821
   scf:  175    -7567.060873    -7567.060863    -7567.143446  0.000125 -2.591339  0.015779
   scf:  176    -7567.060833    -7567.060849    -7567.143450  0.000221 -2.591383  0.016434
   scf:  177    -7567.060861    -7567.060855    -7567.143450  0.000081 -2.591378  0.016095
   scf:  178    -7567.060852    -7567.060853    -7567.143451  0.000034 -2.591402  0.016046
   scf:  179    -7567.060874    -7567.060864    -7567.143453  0.000118 -2.591459  0.015015
   scf:  180    -7567.060834    -7567.060850    -7567.143457  0.000218 -2.591504  0.015659
   scf:  181    -7567.060862    -7567.060856    -7567.143456  0.000080 -2.591497  0.015336
   scf:  182    -7567.060853    -7567.060854    -7567.143458  0.000029 -2.591518  0.015289
   scf:  183    -7567.060874    -7567.060865    -7567.143460  0.000111 -2.591578  0.014272
   scf:  184    -7567.060835    -7567.060851    -7567.143463  0.000214 -2.591623  0.014901
   scf:  185    -7567.060862    -7567.060857    -7567.143463  0.000079 -2.591615  0.014595
   scf:  186    -7567.060855    -7567.060856    -7567.143463  0.000024 -2.591633  0.014552
   scf:  187    -7567.060874    -7567.060865    -7567.143466  0.000104 -2.591695  0.013547
   scf:  188    -7567.060836    -7567.060852    -7567.143468  0.000209 -2.591741  0.014160
   scf:  189    -7567.060863    -7567.060857    -7567.143468  0.000078 -2.591731  0.013871
   scf:  190    -7567.060856    -7567.060856    -7567.143469  0.000019 -2.591746  0.013833
   scf:  191    -7567.060875    -7567.060866    -7567.143471  0.000098 -2.591811  0.012842
   scf:  192    -7567.060838    -7567.060852    -7567.143473  0.000204 -2.591857  0.013438
   scf:  193    -7567.060863    -7567.060858    -7567.143473  0.000076 -2.591846  0.013166
   scf:  194    -7567.060857    -7567.060857    -7567.143474  0.000015 -2.591859  0.013132
   scf:  195    -7567.060875    -7567.060866    -7567.143476  0.000093 -2.591926  0.012155
   scf:  196    -7567.060839    -7567.060853    -7567.143478  0.000199 -2.591971  0.012732
   scf:  197    -7567.060864    -7567.060858    -7567.143478  0.000074 -2.591959  0.012478
   scf:  198    -7567.060858    -7567.060858    -7567.143478  0.000012 -2.591969  0.012450
   scf:  199    -7567.060875    -7567.060867    -7567.143480  0.000088 -2.592039  0.011485
   scf:  200    -7567.060840    -7567.060854    -7567.143482  0.000193 -2.592084  0.012044
   scf:  201    -7567.060864    -7567.060859    -7567.143482  0.000072 -2.592071  0.011807
   scf:  202    -7567.060858    -7567.060859    -7567.143482  0.000009 -2.592079  0.011785
   scf:  203    -7567.060875    -7567.060867    -7567.143484  0.000086 -2.592151  0.010832
   scf:  204    -7567.060841    -7567.060854    -7567.143486  0.000187 -2.592196  0.011373
   scf:  205    -7567.060864    -7567.060859    -7567.143486  0.000069 -2.592182  0.011152
   scf:  206    -7567.060859    -7567.060859    -7567.143486  0.000006 -2.592188  0.011135
   scf:  207    -7567.060875    -7567.060867    -7567.143488  0.000084 -2.592262  0.010193
   scf:  208    -7567.060842    -7567.060855    -7567.143489  0.000180 -2.592307  0.010717
   scf:  209    -7567.060864    -7567.060860    -7567.143489  0.000066 -2.592292  0.010513
   scf:  210    -7567.060859    -7567.060860    -7567.143489  0.000004 -2.592296  0.010501
   scf:  211    -7567.060874    -7567.060867    -7567.143491  0.000082 -2.592373  0.009571
   scf:  212    -7567.060843    -7567.060856    -7567.143492  0.000173 -2.592416  0.010078
   scf:  213    -7567.060864    -7567.060860    -7567.143492  0.000062 -2.592402  0.009888
   scf:  214    -7567.060860    -7567.060860    -7567.143492  0.000002 -2.592404  0.009882
   scf:  215    -7567.060874    -7567.060867    -7567.143494  0.000079 -2.592481  0.008974
   scf:  216    -7567.060844    -7567.060856    -7567.143495  0.000165 -2.592523  0.009461
   scf:  217    -7567.060864    -7567.060860    -7567.143495  0.000058 -2.592508  0.009288
   scf:  218    -7567.060860    -7567.060860    -7567.143495  0.000000 -2.592509  0.009287
   scf:  219    -7567.060873    -7567.060867    -7567.143496  0.000069 -2.592567  0.008541
   scf:  220    -7567.060847    -7567.060857    -7567.143497  0.000144 -2.592606  0.008960
   scf:  221    -7567.060864    -7567.060860    -7567.143497  0.000049 -2.592592  0.008822
   scf:  222    -7567.060860    -7567.060860    -7567.143497  0.000001 -2.592590  0.008827
   scf:  223    -7567.060873    -7567.060867    -7567.143498  0.000072 -2.592665  0.007996
   scf:  224    -7567.060846    -7567.060857    -7567.143499  0.000148 -2.592705  0.008430
   scf:  225    -7567.060864    -7567.060860    -7567.143499  0.000051 -2.592690  0.008289
   scf:  226    -7567.060861    -7567.060861    -7567.143499  0.000003 -2.592686  0.008300
   scf:  227    -7567.060874    -7567.060868    -7567.143500  0.000079 -2.592785  0.007346
   scf:  228    -7567.060846    -7567.060857    -7567.143501  0.000151 -2.592828  0.007801
   scf:  229    -7567.060864    -7567.060861    -7567.143501  0.000051 -2.592811  0.007659
   scf:  230    -7567.060861    -7567.060861    -7567.143501  0.000002 -2.592805  0.007677
   scf:  231    -7567.060889    -7567.060875    -7567.143503  0.000142 -2.593100  0.005937
   scf:  232    -7567.060852    -7567.060864    -7567.143504  0.000163 -2.593136  0.006553
   scf:  233    -7567.060870    -7567.060867    -7567.143504  0.000048 -2.593124  0.006354
   scf:  234    -7567.060863    -7567.060865    -7567.143504  0.000016 -2.593120  0.006351
   scf:  235    -7567.060866    -7567.060866    -7567.143505  0.000093 -2.593145  0.005582
   scf:  236    -7567.060846    -7567.060856    -7567.143506  0.000126 -2.593155  0.006100
   scf:  237    -7567.060862    -7567.060859    -7567.143506  0.000031 -2.593162  0.005933
   scf:  238    -7567.060862    -7567.060860    -7567.143506  0.000010 -2.593193  0.005835
   scf:  239    -7567.060926    -7567.060893    -7567.143509  0.000260 -2.593863  0.002932
   scf:  240    -7567.060861    -7567.060878    -7567.143509  0.000133 -2.593739  0.003969
   scf:  241    -7567.060886    -7567.060882    -7567.143509  0.000041 -2.593823  0.003510
   scf:  242    -7567.060886    -7567.060884    -7567.143510  0.000047 -2.594001  0.002892
   scf:  243    -7567.060915    -7567.060900    -7567.143511  0.000264 -2.594882  0.002364
   scf:  244    -7567.060876    -7567.060888    -7567.143511  0.000143 -2.594549  0.001655
   scf:  245    -7567.060891    -7567.060889    -7567.143512  0.000039 -2.594677  0.001090
   scf:  246    -7567.060885    -7567.060887    -7567.143512  0.000042 -2.594795  0.000948

SCF Convergence by DM+H criterion
max |DM_out - DM_in|         :     0.0000422026
max |H_out - H_in|      (eV) :     0.0009480092
SCF cycle converged after 246 iterations

Using DM_out to compute the final energy and forces
No. of atoms with KB's overlaping orbs in proc 0. Max # of overlaps:      10      93

siesta: E_KS(eV) =            -7567.0609

siesta: E_KS - E_eggbox =     -7567.0609

siesta: Atomic forces (eV/Ang):
----------------------------------------
   Tot   -0.029190    0.011658    0.003391
----------------------------------------
   Max    5.320520
   Res    2.645979    sqrt( Sum f_i^2 / 3N )
----------------------------------------
   Max    5.320520    constrained

Stress tensor Voigt[x,y,z,yz,xz,xy] (kbar):        6.94        7.29        9.75       -3.86       -1.15        0.96
(Free)E + p*V (eV/cell)    -7579.5555
Target enthalpy (eV/cell)    -7536.0849

siesta: Stress tensor (static) (eV/Ang**3):
         0.004329    0.000602   -0.000715
         0.000602    0.004552   -0.002409
        -0.000715   -0.002409    0.006085

siesta: Pressure (static):         -7.99262748  kBar

siesta: Stress tensor (total) (eV/Ang**3):
         0.004329    0.000602   -0.000715
         0.000602    0.004552   -0.002409
        -0.000715   -0.002409    0.006085

siesta: Pressure (total):         -7.99262748  kBar

Reading %block Target.Stress.Voigt (units of Target.Pressure).

Target stress (kBar)
         20.000      -0.000      -0.000
         -0.000      -0.000      -0.000
         -0.000      -0.000      -0.000

                     ====================================
                        Begin CG opt. move =      1
                     ====================================
 Kpoints in:           18 . Kpoints trimmed:           14

siesta: k-grid: Number of k-points = 14
siesta: k-points from Monkhorst-Pack grid
siesta: k-cutoff (effective) =    17.896 Ang
siesta: k-point supercell and displacements
siesta: k-grid:     3     0     0      0.000
siesta: k-grid:     0     3     0      0.000
siesta: k-grid:     0     0     3      0.000

outcell: Unit cell vectors (Ang):
       11.930992   -0.004832    0.005737
       -0.005680   13.902837    0.022725
        0.007269    0.024502   14.974076

outcell: Cell vector modules (Ang)   :   11.930994   13.902857   14.974098
outcell: Cell angles (23,13,12) (deg):     89.8126     89.9447     90.0466
outcell: Cell volume (Ang**3)        :   2483.8118
<dSpData1D:S at geom step 1
  <sparsity:sparsity for geom step 1
    nrows_g=134 nrows=134 sparsity=.8667 nnzs=15562, refcount: 7>
  <dData1D:(new from dSpData1D) n=15562, refcount: 1>
refcount: 1>
new_DM -- step:     2
Re-using DM from previous geometries...
Number of DMs in history: 1
 DM extrapolation coefficients: 
1   1.00000
New DM after history re-use:
<dSpData2D:SpM extrapolated using coords
  <sparsity:sparsity for geom step 1
    nrows_g=134 nrows=134 sparsity=.8667 nnzs=15562, refcount: 9>
  <dData2D:(temp array for extrapolation) n=15562 m=1, refcount: 1>
refcount: 1>
Note: For starting DM, Qtot, Tr[D*S] =         80.00000000         80.13827860
No. of atoms with KB's overlaping orbs in proc 0. Max # of overlaps:      10      92

InitMesh: MESH = 128 x 150 x 160 = 3072000
InitMesh: Mesh cutoff (required, used) =   300.000   315.548 Ry
New grid distribution [1]: sub = 2

        iscf     Eharris(eV)        E_KS(eV)     FreeEng(eV)     dDmax    Ef(eV) dHmax(eV)
   scf:    1    -7556.014262    -7564.504961    -7564.553256  0.328576 -2.892035 11.911527
   scf:    2    -5556.157092    -6917.559151    -6917.562245  2.724039 -2.815008112.335149
   scf:    3    -7628.348540    -7560.702478    -7560.778211  2.421918 -2.518271 16.989111
   scf:    4    -7542.396804    -7563.207719    -7563.269836  0.979356 -2.785586 14.655455
   scf:    5    -7567.780414    -7566.452345    -7566.492798  0.494553 -2.658975  7.132283
   scf:    6    -7564.329870    -7567.574807    -7567.651259  0.334371 -2.535237  3.706091
   scf:    7    -7566.258577    -7567.877825    -7567.935912  0.247206 -2.568113  2.956670
   scf:    8    -7568.348605    -7568.246436    -7568.314711  0.087563 -2.550462  1.461712
   scf:    9    -7568.301063    -7568.278855    -7568.348983  0.019401 -2.546365  1.267213
   scf:   10    -7568.332546    -7568.311243    -7568.380958  0.016181 -2.545242  0.917956
   scf:   11    -7568.310362    -7568.329384    -7568.402520  0.039603 -2.538346  0.638521
   scf:   12    -7568.328637    -7568.341033    -7568.412110  0.028425 -2.541717  0.609346
   scf:   13    -7568.351866    -7568.347863    -7568.419933  0.010686 -2.539854  0.546771
   scf:   14    -7568.359400    -7568.354391    -7568.426448  0.006859 -2.539472  0.434853
   scf:   15    -7568.356581    -7568.359423    -7568.433300  0.017906 -2.535966  0.303955
   scf:   16    -7568.359418    -7568.362901    -7568.435728  0.014870 -2.537627  0.278315
   scf:   17    -7568.365628    -7568.364818    -7568.438278  0.006461 -2.536469  0.260004
   scf:   18    -7568.368159    -7568.366636    -7568.440169  0.003439 -2.536162  0.227372
   scf:   19    -7568.368112    -7568.368328    -7568.442949  0.008962 -2.533997  0.204404
   scf:   20    -7568.368881    -7568.369716    -7568.443812  0.008143 -2.534782  0.198022
   scf:   21    -7568.370334    -7568.370258    -7568.444761  0.004051 -2.534017  0.174980
   scf:   22    -7568.371503    -7568.370919    -7568.445498  0.001774 -2.533751  0.177760
   scf:   23    -7568.371704    -7568.371591    -7568.446877  0.005219 -2.532234  0.146901
   scf:   24    -7568.372198    -7568.372323    -7568.447350  0.004910 -2.532553  0.170032
   scf:   25    -7568.372351    -7568.372453    -7568.447749  0.002753 -2.532036  0.153444
   scf:   26    -7568.373025    -7568.372753    -7568.448106  0.000937 -2.531821  0.153947
   scf:   27    -7568.373133    -7568.373044    -7568.448877  0.003136 -2.530701  0.131098
   scf:   28    -7568.373562    -7568.373506    -7568.449214  0.003320 -2.530763  0.144979
   scf:   29    -7568.373356    -7568.373501    -7568.449394  0.002069 -2.530410  0.132453
   scf:   30    -7568.373811    -7568.373663    -7568.449594  0.000613 -2.530243  0.132262
   scf:   31    -7568.373820    -7568.373784    -7568.450043  0.001903 -2.529420  0.115147
   scf:   32    -7568.374194    -7568.374100    -7568.450299  0.002443 -2.529344  0.123157
   scf:   33    -7568.373901    -7568.374048    -7568.450383  0.001676 -2.529096  0.113336
   scf:   34    -7568.374240    -7568.374149    -7568.450507  0.000461 -2.528968  0.113032
   scf:   35    -7568.374192    -7568.374190    -7568.450767  0.001202 -2.528381  0.100337
   scf:   36    -7568.374501    -7568.374410    -7568.450960  0.001867 -2.528240  0.104638
   scf:   37    -7568.374211    -7568.374344    -7568.451001  0.001406 -2.528055  0.096706
   scf:   38    -7568.374477    -7568.374414    -7568.451083  0.000416 -2.527959  0.096507
   scf:   39    -7568.374405    -7568.374419    -7568.451231  0.000834 -2.527553  0.087293
   scf:   40    -7568.374650    -7568.374572    -7568.451373  0.001435 -2.527391  0.089217
   scf:   41    -7568.374391    -7568.374506    -7568.451395  0.001190 -2.527243  0.082619
   scf:   42    -7568.374606    -7568.374559    -7568.451451  0.000400 -2.527173  0.082623
   scf:   43    -7568.374531    -7568.374549    -7568.451535  0.000573 -2.526899  0.076059
   scf:   44    -7568.374718    -7568.374655    -7568.451636  0.001095 -2.526742  0.076489
   scf:   45    -7568.374497    -7568.374594    -7568.451651  0.001009 -2.526613  0.070825
   scf:   46    -7568.374674    -7568.374636    -7568.451689  0.000389 -2.526567  0.071081
   scf:   47    -7568.374605    -7568.374623    -7568.451736  0.000394 -2.526384  0.066437
   scf:   48    -7568.374745    -7568.374696    -7568.451808  0.000824 -2.526245  0.065980
   scf:   49    -7568.374559    -7568.374640    -7568.451819  0.000854 -2.526124  0.060957
   scf:   50    -7568.374709    -7568.374677    -7568.451845  0.000381 -2.526099  0.061485
   scf:   51    -7568.374648    -7568.374664    -7568.451873  0.000277 -2.525976  0.058161
   scf:   52    -7568.374750    -7568.374714    -7568.451923  0.000612 -2.525859  0.057233
   scf:   53    -7568.374596    -7568.374664    -7568.451933  0.000722 -2.525742  0.052646
   scf:   54    -7568.374726    -7568.374697    -7568.451951  0.000373 -2.525735  0.053438
   scf:   55    -7568.374672    -7568.374685    -7568.451967  0.000203 -2.525650  0.050976
   scf:   56    -7568.374746    -7568.374719    -7568.452001  0.000449 -2.525556  0.049856
   scf:   57    -7568.374618    -7568.374675    -7568.452012  0.000610 -2.525442  0.045574
   scf:   58    -7568.374732    -7568.374706    -7568.452023  0.000364 -2.525449  0.046596
   scf:   59    -7568.374684    -7568.374695    -7568.452034  0.000159 -2.525387  0.044670
   scf:   60    -7568.374737    -7568.374718    -7568.452057  0.000325 -2.525315  0.043537
   scf:   61    -7568.374630    -7568.374679    -7568.452066  0.000514 -2.525205  0.039491
   scf:   62    -7568.374732    -7568.374708    -7568.452074  0.000351 -2.525222  0.040685
   scf:   63    -7568.374687    -7568.374698    -7568.452081  0.000134 -2.525174  0.039083
   scf:   64    -7568.374727    -7568.374713    -7568.452096  0.000233 -2.525121  0.038042
   scf:   65    -7568.374638    -7568.374679    -7568.452106  0.000432 -2.525016  0.034212
   scf:   66    -7568.374729    -7568.374706    -7568.452111  0.000335 -2.525040  0.035502
   scf:   67    -7568.374686    -7568.374696    -7568.452115  0.000122 -2.525000  0.034099
   scf:   68    -7568.374716    -7568.374707    -7568.452125  0.000165 -2.524963  0.033204
   scf:   69    -7568.374642    -7568.374677    -7568.452134  0.000361 -2.524866  0.029604
   scf:   70    -7568.374723    -7568.374702    -7568.452137  0.000314 -2.524894  0.030908
   scf:   71    -7568.374683    -7568.374693    -7568.452140  0.000118 -2.524860  0.029641
   scf:   72    -7568.374706    -7568.374700    -7568.452147  0.000117 -2.524835  0.028906
   scf:   73    -7568.374645    -7568.374674    -7568.452154  0.000299 -2.524749  0.025573
   scf:   74    -7568.374716    -7568.374697    -7568.452156  0.000288 -2.524776  0.026811
   scf:   75    -7568.374678    -7568.374688    -7568.452158  0.000115 -2.524748  0.025659
   scf:   76    -7568.374697    -7568.374693    -7568.452162  0.000083 -2.524732  0.025076
   scf:   77    -7568.374647    -7568.374671    -7568.452168  0.000245 -2.524658  0.022053
   scf:   78    -7568.374709    -7568.374691    -7568.452170  0.000260 -2.524684  0.023159
   scf:   79    -7568.374673    -7568.374682    -7568.452171  0.000112 -2.524660  0.022118
   scf:   80    -7568.374689    -7568.374686    -7568.452174  0.000059 -2.524650  0.021667
   scf:   81    -7568.374649    -7568.374668    -7568.452178  0.000199 -2.524590  0.018990
   scf:   82    -7568.374701    -7568.374686    -7568.452179  0.000229 -2.524613  0.019921
   scf:   83    -7568.374668    -7568.374677    -7568.452181  0.000108 -2.524592  0.018995
   scf:   84    -7568.374682    -7568.374680    -7568.452182  0.000043 -2.524587  0.018650
   scf:   85    -7568.374650    -7568.374665    -7568.452185  0.000159 -2.524540  0.016342
   scf:   86    -7568.374694    -7568.374680    -7568.452186  0.000198 -2.524560  0.017074
   scf:   87    -7568.374664    -7568.374672    -7568.452187  0.000102 -2.524543  0.016265
   scf:   88    -7568.374676    -7568.374674    -7568.452188  0.000033 -2.524540  0.016002
   scf:   89    -7568.374651    -7568.374663    -7568.452190  0.000126 -2.524505  0.014067
   scf:   90    -7568.374687    -7568.374676    -7568.452191  0.000168 -2.524522  0.014600
   scf:   91    -7568.374661    -7568.374668    -7568.452192  0.000095 -2.524507  0.013903
   scf:   92    -7568.374672    -7568.374670    -7568.452192  0.000026 -2.524506  0.013701
   scf:   93    -7568.374652    -7568.374661    -7568.452194  0.000098 -2.524482  0.012125
   scf:   94    -7568.374681    -7568.374671    -7568.452195  0.000140 -2.524496  0.012472
   scf:   95    -7568.374658    -7568.374665    -7568.452195  0.000087 -2.524484  0.011878
   scf:   96    -7568.374668    -7568.374666    -7568.452195  0.000022 -2.524484  0.011722
   scf:   97    -7568.374653    -7568.374660    -7568.452197  0.000075 -2.524467  0.010475
   scf:   98    -7568.374676    -7568.374668    -7568.452197  0.000115 -2.524479  0.010662
   scf:   99    -7568.374656    -7568.374662    -7568.452197  0.000080 -2.524469  0.010155
   scf:  100    -7568.374665    -7568.374663    -7568.452198  0.000020 -2.524470  0.010035
   scf:  101    -7568.374653    -7568.374658    -7568.452198  0.000056 -2.524460  0.009074
   scf:  102    -7568.374672    -7568.374665    -7568.452199  0.000093 -2.524470  0.009132
   scf:  103    -7568.374654    -7568.374660    -7568.452199  0.000072 -2.524461  0.008696
   scf:  104    -7568.374662    -7568.374661    -7568.452199  0.000019 -2.524463  0.008606
   scf:  105    -7568.374654    -7568.374657    -7568.452199  0.000042 -2.524457  0.007884
   scf:  106    -7568.374668    -7568.374663    -7568.452200  0.000074 -2.524466  0.007846
   scf:  107    -7568.374653    -7568.374658    -7568.452200  0.000065 -2.524458  0.007463
   scf:  108    -7568.374660    -7568.374659    -7568.452200  0.000019 -2.524460  0.007400
   scf:  109    -7568.374654    -7568.374656    -7568.452200  0.000031 -2.524457  0.006870
   scf:  110    -7568.374665    -7568.374661    -7568.452201  0.000059 -2.524465  0.006765
   scf:  111    -7568.374652    -7568.374656    -7568.452201  0.000058 -2.524458  0.006420
   scf:  112    -7568.374659    -7568.374658    -7568.452201  0.000019 -2.524461  0.006384
   scf:  113    -7568.374654    -7568.374656    -7568.452201  0.000022 -2.524459  0.005999
   scf:  114    -7568.374662    -7568.374659    -7568.452201  0.000046 -2.524467  0.005855
   scf:  115    -7568.374651    -7568.374655    -7568.452201  0.000052 -2.524461  0.005534
   scf:  116    -7568.374658    -7568.374656    -7568.452201  0.000019 -2.524464  0.005525
   scf:  117    -7568.374654    -7568.374655    -7568.452201  0.000016 -2.524463  0.005247
   scf:  118    -7568.374660    -7568.374658    -7568.452202  0.000035 -2.524471  0.005086
   scf:  119    -7568.374650    -7568.374654    -7568.452202  0.000046 -2.524465  0.004779
   scf:  120    -7568.374657    -7568.374656    -7568.452202  0.000020 -2.524469  0.004797
   scf:  121    -7568.374653    -7568.374654    -7568.452202  0.000012 -2.524468  0.004592
   scf:  122    -7568.374658    -7568.374656    -7568.452202  0.000027 -2.524475  0.004432
   scf:  123    -7568.374650    -7568.374653    -7568.452202  0.000041 -2.524471  0.004132
   scf:  124    -7568.374656    -7568.374655    -7568.452202  0.000020 -2.524474  0.004175
   scf:  125    -7568.374653    -7568.374654    -7568.452202  0.000010 -2.524474  0.004018
   scf:  126    -7568.374657    -7568.374655    -7568.452202  0.000020 -2.524480  0.003870
   scf:  127    -7568.374650    -7568.374653    -7568.452202  0.000036 -2.524477  0.003576
   scf:  128    -7568.374656    -7568.374654    -7568.452202  0.000020 -2.524480  0.003640
   scf:  129    -7568.374653    -7568.374654    -7568.452202  0.000008 -2.524481  0.003513
   scf:  130    -7568.374656    -7568.374655    -7568.452202  0.000015 -2.524486  0.003385
   scf:  131    -7568.374650    -7568.374652    -7568.452202  0.000031 -2.524484  0.003098
   scf:  132    -7568.374655    -7568.374654    -7568.452202  0.000020 -2.524487  0.003176
   scf:  133    -7568.374653    -7568.374653    -7568.452202  0.000008 -2.524487  0.003068
   scf:  134    -7568.374655    -7568.374654    -7568.452202  0.000011 -2.524492  0.002962
   scf:  135    -7568.374650    -7568.374652    -7568.452202  0.000027 -2.524490  0.002685
   scf:  136    -7568.374655    -7568.374653    -7568.452202  0.000019 -2.524494  0.002772
   scf:  137    -7568.374652    -7568.374653    -7568.452202  0.000007 -2.524494  0.002675
   scf:  138    -7568.374654    -7568.374653    -7568.452202  0.000008 -2.524497  0.002592
   scf:  139    -7568.374650    -7568.374652    -7568.452202  0.000023 -2.524497  0.002330
   scf:  140    -7568.374654    -7568.374653    -7568.452202  0.000018 -2.524500  0.002419
   scf:  141    -7568.374652    -7568.374652    -7568.452202  0.000007 -2.524500  0.002329
   scf:  142    -7568.374653    -7568.374653    -7568.452203  0.000006 -2.524503  0.002267
   scf:  143    -7568.374650    -7568.374651    -7568.452203  0.000019 -2.524504  0.002025
   scf:  144    -7568.374654    -7568.374653    -7568.452203  0.000017 -2.524506  0.002109
   scf:  145    -7568.374652    -7568.374652    -7568.452203  0.000007 -2.524507  0.002026
   scf:  146    -7568.374653    -7568.374652    -7568.452203  0.000005 -2.524509  0.001980
   scf:  147    -7568.374650    -7568.374651    -7568.452203  0.000016 -2.524510  0.001764
   scf:  148    -7568.374654    -7568.374652    -7568.452203  0.000016 -2.524513  0.001837
   scf:  149    -7568.374651    -7568.374652    -7568.452203  0.000007 -2.524513  0.001760
   scf:  150    -7568.374652    -7568.374652    -7568.452203  0.000003 -2.524515  0.001728
   scf:  151    -7568.374650    -7568.374651    -7568.452203  0.000013 -2.524516  0.001539
   scf:  152    -7568.374653    -7568.374652    -7568.452203  0.000014 -2.524519  0.001599
   scf:  153    -7568.374651    -7568.374652    -7568.452203  0.000007 -2.524518  0.001529
   scf:  154    -7568.374652    -7568.374652    -7568.452203  0.000003 -2.524520  0.001506
   scf:  155    -7568.374650    -7568.374651    -7568.452203  0.000010 -2.524522  0.001346
   scf:  156    -7568.374653    -7568.374652    -7568.452203  0.000012 -2.524524  0.001390
   scf:  157    -7568.374651    -7568.374651    -7568.452203  0.000007 -2.524524  0.001327
   scf:  158    -7568.374652    -7568.374652    -7568.452203  0.000002 -2.524525  0.001310
   scf:  159    -7568.374650    -7568.374651    -7568.452203  0.000008 -2.524527  0.001180
   scf:  160    -7568.374653    -7568.374652    -7568.452203  0.000011 -2.524529  0.001208
   scf:  161    -7568.374651    -7568.374651    -7568.452203  0.000007 -2.524529  0.001152
   scf:  162    -7568.374652    -7568.374651    -7568.452203  0.000002 -2.524530  0.001140
   scf:  163    -7568.374650    -7568.374651    -7568.452203  0.000006 -2.524532  0.001036
   scf:  164    -7568.374652    -7568.374652    -7568.452203  0.000009 -2.524534  0.001050
   scf:  165    -7568.374651    -7568.374651    -7568.452203  0.000007 -2.524534  0.000999

SCF Convergence by DM+H criterion
max |DM_out - DM_in|         :     0.0000069889
max |H_out - H_in|      (eV) :     0.0009992148
SCF cycle converged after 165 iterations

Using DM_out to compute the final energy and forces
No. of atoms with KB's overlaping orbs in proc 0. Max # of overlaps:      10      92

siesta: E_KS(eV) =            -7568.3747

siesta: Atomic forces (eV/Ang):
----------------------------------------
   Tot   -0.024724   -0.021902   -0.013261
----------------------------------------
   Max    4.462425
   Res    2.032346    sqrt( Sum f_i^2 / 3N )
----------------------------------------
   Max    4.462425    constrained

Stress tensor Voigt[x,y,z,yz,xz,xy] (kbar):        6.34        4.39        7.21       -1.69       -1.31        1.55
(Free)E + p*V (eV/cell)    -7577.7235
Target enthalpy (eV/cell)    -7537.4467

siesta: Stress tensor (static) (eV/Ang**3):
         0.003960    0.000967   -0.000817
         0.000967    0.002740   -0.001052
        -0.000817   -0.001052    0.004498

siesta: Pressure (static):         -5.98039661  kBar

siesta: Stress tensor (total) (eV/Ang**3):
         0.003960    0.000967   -0.000817
         0.000967    0.002740   -0.001052
        -0.000817   -0.001052    0.004498

siesta: Pressure (total):         -5.98039661  kBar

                     ====================================
                        Begin CG opt. move =      2
                     ====================================
 Kpoints in:           18 . Kpoints trimmed:           14

siesta: k-grid: Number of k-points = 14
siesta: k-points from Monkhorst-Pack grid
siesta: k-cutoff (effective) =    18.054 Ang
siesta: k-point supercell and displacements
siesta: k-grid:     3     0     0      0.000
siesta: k-grid:     0     3     0      0.000
siesta: k-grid:     0     0     3      0.000

outcell: Unit cell vectors (Ang):
       12.035713   -0.012564    0.014915
       -0.014767   13.834122    0.059086
        0.018900    0.063705   14.875056

outcell: Cell vector modules (Ang)   :   12.035728   13.834256   14.875205
outcell: Cell angles (23,13,12) (deg):     89.5100     89.8565     90.1207
outcell: Cell volume (Ang**3)        :   2476.6973
<dSpData1D:S at geom step 2
  <sparsity:sparsity for geom step 2
    nrows_g=134 nrows=134 sparsity=.8757 nnzs=15724, refcount: 7>
  <dData1D:(new from dSpData1D) n=15724, refcount: 1>
refcount: 1>
new_DM -- step:     3
Re-using DM from previous geometries...
Number of DMs in history: 1
 DM extrapolation coefficients: 
1   1.00000
New DM after history re-use:
<dSpData2D:SpM extrapolated using coords
  <sparsity:sparsity for geom step 2
    nrows_g=134 nrows=134 sparsity=.8757 nnzs=15724, refcount: 9>
  <dData2D:(temp array for extrapolation) n=15724 m=1, refcount: 1>
refcount: 1>
Note: For starting DM, Qtot, Tr[D*S] =         80.00000000         80.16394944
No. of atoms with KB's overlaping orbs in proc 0. Max # of overlaps:      10      93

InitMesh: MESH = 128 x 150 x 160 = 3072000
InitMesh: Mesh cutoff (required, used) =   300.000   312.595 Ry
New grid distribution [1]: sub = 2

        iscf     Eharris(eV)        E_KS(eV)     FreeEng(eV)     dDmax    Ef(eV) dHmax(eV)
   scf:    1    -7551.081335    -7564.195273    -7564.238530  0.554529 -3.000338 13.628678
   scf:    2    -5680.251801    -6956.662890    -6956.676816  2.897981 -2.344199114.043009
   scf:    3    -7526.405259    -7565.084104    -7565.132992  2.845503 -2.590809 13.007236
   scf:    4    -7528.548168    -7553.323680    -7553.399627  0.632528 -2.389686 24.671982
   scf:    5    -7565.310756    -7567.436962    -7567.469861  0.818108 -2.545354  8.409869
   scf:    6    -7569.105177    -7568.371111    -7568.412170  0.062064 -2.490476  5.344412
   scf:    7    -7552.314478    -7564.547195    -7564.618427  0.686341 -2.406820 12.089774
   scf:    8    -7567.057921    -7568.929601    -7568.981853  0.601931 -2.463028  2.650790
   scf:    9    -7569.206288    -7569.099935    -7569.158527  0.057669 -2.450506  1.697194
   scf:   10    -7569.226552    -7569.174443    -7569.236425  0.037296 -2.440894  1.375811
   scf:   11    -7569.282510    -7569.235533    -7569.297647  0.018993 -2.433580  0.854388
   scf:   12    -7569.277345    -7569.276104    -7569.342694  0.041788 -2.418509  0.516372
   scf:   13    -7569.274599    -7569.286279    -7569.350450  0.030543 -2.421438  0.406750
   scf:   14    -7569.290893    -7569.290248    -7569.355576  0.011332 -2.419238  0.341570
   scf:   15    -7569.295305    -7569.292835    -7569.358232  0.002837 -2.418373  0.340862
   scf:   16    -7569.307994    -7569.302014    -7569.369198  0.018194 -2.411603  0.253669
   scf:   17    -7569.306391    -7569.305953    -7569.372617  0.009638 -2.410959  0.294638
   scf:   18    -7569.305000    -7569.305947    -7569.373071  0.005901 -2.410338  0.262824
   scf:   19    -7569.307391    -7569.306684    -7569.373829  0.001119 -2.409912  0.261337
   scf:   20    -7569.310500    -7569.308734    -7569.376502  0.005408 -2.407285  0.219673
   scf:   21    -7569.312964    -7569.311346    -7569.379192  0.005735 -2.405131  0.211656
   scf:   22    -7569.310186    -7569.311055    -7569.379230  0.004315 -2.404754  0.188509
   scf:   23    -7569.311889    -7569.311508    -7569.379610  0.001347 -2.404605  0.191549
   scf:   24    -7569.311948    -7569.311734    -7569.379944  0.000828 -2.404145  0.181908
   scf:   25    -7569.313913    -7569.312923    -7569.381222  0.002254 -2.402706  0.164087
   scf:   26    -7569.312706    -7569.312984    -7569.381683  0.003862 -2.401579  0.132997
   scf:   27    -7569.313424    -7569.313278    -7569.381789  0.002330 -2.401837  0.144329
   scf:   28    -7569.313363    -7569.313324    -7569.381904  0.000585 -2.401612  0.138351
   scf:   29    -7569.313909    -7569.313627    -7569.382241  0.000844 -2.401132  0.130259
   scf:   30    -7569.313811    -7569.313800    -7569.382783  0.002636 -2.399746  0.095010
   scf:   31    -7569.314165    -7569.314056    -7569.382860  0.002302 -2.399965  0.105270
   scf:   32    -7569.313973    -7569.314025    -7569.382914  0.000885 -2.399787  0.098909
   scf:   33    -7569.314129    -7569.314078    -7569.382974  0.000218 -2.399690  0.096675
   scf:   34    -7569.314142    -7569.314134    -7569.383263  0.001488 -2.398832  0.071341
   scf:   35    -7569.314426    -7569.314320    -7569.383362  0.001640 -2.398797  0.073056
   scf:   36    -7569.314161    -7569.314253    -7569.383367  0.000935 -2.398714  0.068833
   scf:   37    -7569.314295    -7569.314274    -7569.383389  0.000146 -2.398681  0.067801
   scf:   38    -7569.314241    -7569.314261    -7569.383471  0.000604 -2.398388  0.057145
   scf:   39    -7569.314414    -7569.314353    -7569.383552  0.000943 -2.398248  0.052520
   scf:   40    -7569.314206    -7569.314289    -7569.383553  0.000828 -2.398164  0.048654
   scf:   41    -7569.314338    -7569.314314    -7569.383565  0.000270 -2.398168  0.048702
   scf:   42    -7569.314293    -7569.314304    -7569.383578  0.000132 -2.398114  0.046157
[...]
   scf:    2    -3496.570719    -6286.265202    -6286.266438 19.621432 -0.600695198.272191
   scf:    3    -8027.847167    -7499.860342    -7499.860342 19.674438 -3.034083 48.069052
   scf:    4    -6800.683208    -7379.925849    -7379.987761  2.194620 -2.290830 71.966793
   scf:    5    -7223.167285    -7514.595123    -7514.595123  2.644450 -3.053831 39.529719
   scf:    6    -7580.792500    -7558.476086    -7558.528204  0.903760 -2.786497 21.901643
   scf:    7    -7574.278933    -7567.903065    -7567.903178  0.253015 -2.483950 10.453227
   scf:    8    -7518.921170    -7556.937485    -7556.974822  1.010615 -2.307693 20.997417
   scf:    9    -7557.162465    -7569.073452    -7569.074083  0.989755 -2.454482  7.562959
   scf:   10    -7570.036792    -7569.594336    -7569.598074  0.039320 -2.432155  5.796777
   scf:   11    -7510.725691    -7553.442924    -7553.481842  1.021945 -2.283804 23.749762
   scf:   12    -7562.570986    -7570.048861    -7570.062375  0.987661 -2.412667  4.244555
   scf:   13    -7570.774585    -7570.472114    -7570.500706  0.058872 -2.398565  2.386211
   scf:   14    -7569.364799    -7570.377524    -7570.433600  0.181974 -2.380994  2.529005
   scf:   15    -7570.550298    -7570.653701    -7570.694679  0.116695 -2.392106  0.590413
   scf:   16    -7570.666087    -7570.663333    -7570.706977  0.017059 -2.391700  0.229383
   scf:   17    -7570.667029    -7570.665367    -7570.709644  0.004599 -2.393001  0.198976
   scf:   18    -7570.670984    -7570.668339    -7570.712855  0.002350 -2.396056  0.184479
   scf:   19    -7570.675058    -7570.672168    -7570.717563  0.006452 -2.402630  0.180333
   scf:   20    -7570.675193    -7570.673726    -7570.719140  0.002073 -2.405838  0.145210
   scf:   21    -7570.678701    -7570.676433    -7570.722543  0.006481 -2.414344  0.138328
   scf:   22    -7570.679940    -7570.678386    -7570.724717  0.006657 -2.423203  0.081472
   scf:   23    -7570.679030    -7570.678759    -7570.725444  0.003841 -2.427725  0.078305
   scf:   24    -7570.679539    -7570.679182    -7570.725897  0.003017 -2.431721  0.068635
   scf:   25    -7570.679173    -7570.679218    -7570.726221  0.003747 -2.436063  0.052702
   scf:   26    -7570.679441    -7570.679348    -7570.726340  0.002015 -2.438710  0.037106
   scf:   27    -7570.679169    -7570.679268    -7570.726397  0.001384 -2.440282  0.034200
   scf:   28    -7570.679389    -7570.679333    -7570.726434  0.000812 -2.441188  0.028284
   scf:   29    -7570.679241    -7570.679291    -7570.726468  0.000888 -2.441776  0.023742
   scf:   30    -7570.679405    -7570.679350    -7570.726494  0.000622 -2.441969  0.018394
   scf:   31    -7570.679334    -7570.679344    -7570.726525  0.000632 -2.442008  0.015751
   scf:   32    -7570.679455    -7570.679401    -7570.726547  0.000646 -2.441966  0.013728
   scf:   33    -7570.679416    -7570.679410    -7570.726575  0.000736 -2.441782  0.014183
   scf:   34    -7570.679515    -7570.679463    -7570.726592  0.000625 -2.441647  0.014344
   scf:   35    -7570.679486    -7570.679476    -7570.726612  0.000720 -2.441375  0.013038
   scf:   36    -7570.679570    -7570.679524    -7570.726623  0.000569 -2.441211  0.011477
   scf:   37    -7570.679533    -7570.679530    -7570.726632  0.000531 -2.440959  0.008418
   scf:   38    -7570.679592    -7570.679561    -7570.726636  0.000297 -2.440861  0.006962
   scf:   39    -7570.679553    -7570.679557    -7570.726639  0.000204 -2.440725  0.005592
   scf:   40    -7570.679591    -7570.679574    -7570.726640  0.000093 -2.440704  0.004414
   scf:   41    -7570.679558    -7570.679566    -7570.726641  0.000090 -2.440665  0.004791
   scf:   42    -7570.679584    -7570.679575    -7570.726642  0.000059 -2.440676  0.003305
   scf:   43    -7570.679560    -7570.679568    -7570.726642  0.000121 -2.440685  0.004089
   scf:   44    -7570.679579    -7570.679573    -7570.726642  0.000034 -2.440697  0.003126
   scf:   45    -7570.679562    -7570.679567    -7570.726643  0.000087 -2.440715  0.003632
   scf:   46    -7570.679575    -7570.679571    -7570.726643  0.000037 -2.440709  0.003210
   scf:   47    -7570.679569    -7570.679570    -7570.726643  0.000010 -2.440703  0.003462
   scf:   48    -7570.679563    -7570.679566    -7570.726643  0.000113 -2.440745  0.003389
   scf:   49    -7570.679566    -7570.679566    -7570.726644  0.000254 -2.440857  0.001957
   scf:   50    -7570.679549    -7570.679558    -7570.726644  0.000266 -2.440961  0.001872
   scf:   51    -7570.679566    -7570.679562    -7570.726644  0.000064 -2.440943  0.001631
   scf:   52    -7570.679564    -7570.679563    -7570.726644  0.000109 -2.440903  0.002129
   scf:   53    -7570.679559    -7570.679561    -7570.726644  0.000133 -2.440954  0.001644
   scf:   54    -7570.679560    -7570.679560    -7570.726644  0.000044 -2.440974  0.001503
   scf:   55    -7570.679554    -7570.679557    -7570.726644  0.000197 -2.441074  0.001248
   scf:   56    -7570.679558    -7570.679557    -7570.726644  0.000033 -2.441096  0.001191
   scf:   57    -7570.679557    -7570.679557    -7570.726644  0.000146 -2.441199  0.000975
   scf:   58    -7570.679560    -7570.679558    -7570.726644  0.000023 -2.441223  0.000869

SCF Convergence by DM+H criterion
max |DM_out - DM_in|         :     0.0000229670
max |H_out - H_in|      (eV) :     0.0008691129
SCF cycle converged after 58 iterations

Using DM_out to compute the final energy and forces
No. of atoms with KB's overlaping orbs in proc 0. Max # of overlaps:      10      93

siesta: E_KS(eV) =            -7570.6796

siesta: Atomic forces (eV/Ang):
----------------------------------------
   Tot    0.004655    0.026914   -0.055537
----------------------------------------
   Max    5.459117
   Res    2.171072    sqrt( Sum f_i^2 / 3N )
----------------------------------------
   Max    5.459117    constrained

Stress tensor Voigt[x,y,z,yz,xz,xy] (kbar):        0.82        2.64       -3.51        1.03        3.20       -0.36
(Free)E + p*V (eV/cell)    -7570.7044
Target enthalpy (eV/cell)    -7536.4957

siesta: Stress tensor (static) (eV/Ang**3):
         0.000515   -0.000222    0.001994
        -0.000222    0.001649    0.000640
         0.001994    0.000640   -0.002188

siesta: Pressure (static):          0.01300693  kBar

siesta: Stress tensor (total) (eV/Ang**3):
         0.000515   -0.000222    0.001994
        -0.000222    0.001649    0.000640
         0.001994    0.000640   -0.002188

siesta: Pressure (total):          0.01300693  kBar

                     ====================================
                        Begin CG opt. move =     11
                     ====================================
 Kpoints in:           18 . Kpoints trimmed:           14

siesta: k-grid: Number of k-points = 14
siesta: k-points from Monkhorst-Pack grid
siesta: k-cutoff (effective) =    20.239 Ang
siesta: k-point supercell and displacements
siesta: k-grid:     3     0     0      0.000
siesta: k-grid:     0     3     0      0.000
siesta: k-grid:     0     0     3      0.000

outcell: Unit cell vectors (Ang):
       13.491620   -0.171085    0.086758
       -0.201080   13.894271   -0.197949
        0.109939   -0.213423   14.982527

outcell: Cell vector modules (Ang)   :   13.492984   13.897136   14.984450
outcell: Cell angles (23,13,12) (deg):     91.6382     89.2009     91.5607
outcell: Cell volume (Ang**3)        :   2807.3575
<dSpData1D:S at geom step 11
  <sparsity:sparsity for geom step 11
    nrows_g=134 nrows=134 sparsity=.8336 nnzs=14968, refcount: 7>
  <dData1D:(new from dSpData1D) n=14968, refcount: 1>
refcount: 1>
new_DM -- step:    12
Re-using DM from previous geometries...
Number of DMs in history: 1
 DM extrapolation coefficients: 
1   1.00000
New DM after history re-use:
<dSpData2D:SpM extrapolated using coords
  <sparsity:sparsity for geom step 11
    nrows_g=134 nrows=134 sparsity=.8336 nnzs=14968, refcount: 9>
  <dData2D:(temp array for extrapolation) n=14968 m=1, refcount: 1>
refcount: 1>
Note: For starting DM, Qtot, Tr[D*S] =         80.00000000         79.89751362
No. of atoms with KB's overlaping orbs in proc 0. Max # of overlaps:      10      81

InitMesh: MESH = 144 x 150 x 160 = 3456000
InitMesh: Mesh cutoff (required, used) =   300.000   315.071 Ry
New grid distribution [1]: sub = 2

        iscf     Eharris(eV)        E_KS(eV)     FreeEng(eV)     dDmax    Ef(eV) dHmax(eV)
   scf:    1    -7286.677177    -7475.904475    -7475.981048  2.561695 -2.207416 59.864383
   scf:    2    -1989.872095    -5793.976220    -5793.995814 18.828482 -1.781238233.529358
   scf:    3    -8184.184814    -7497.569490    -7497.569490 18.868206 -3.671946 48.353129
   scf:    4    -7116.806075    -7467.099572    -7467.154728  1.601418 -2.305749 56.709498
   scf:    5    -7275.975290    -7514.814714    -7514.814722  2.082964 -2.941128 38.939497
   scf:    6    -7580.954432    -7563.856747    -7563.856982  0.887620 -2.593925 15.942528
   scf:    7    -7569.519807    -7566.970707    -7566.970743  0.149534 -2.492200 11.499309
   scf:    8    -7415.702047    -7525.974874    -7526.058877  1.269622 -2.275251 39.180713
   scf:    9    -7546.058474    -7568.177429    -7568.177658  1.259643 -2.490444  9.049215
   scf:   10    -7569.366946    -7568.810385    -7568.811744  0.038725 -2.473598  7.370055
   scf:   11    -7495.137092    -7548.801997    -7548.842262  1.143504 -2.305669 26.457768
   scf:   12    -7559.093592    -7569.374493    -7569.381850  1.116375 -2.450276  5.625223
   scf:   13    -7570.351107    -7569.927384    -7569.949021  0.057867 -2.430629  3.581788
   scf:   14    -7563.609864    -7568.554219    -7568.615187  0.380385 -2.394259  6.356970
   scf:   15    -7569.473398    -7570.218158    -7570.252430  0.313884 -2.420025  1.639076
   scf:   16    -7570.307892    -7570.277585    -7570.317408  0.035722 -2.416044  0.670939
   scf:   17    -7570.290494    -7570.288689    -7570.331572  0.022029 -2.414480  0.231918
   scf:   18    -7570.293490    -7570.291285    -7570.334135  0.002342 -2.415340  0.208759
   scf:   19    -7570.296110    -7570.294149    -7570.337997  0.006845 -2.416962  0.192469
   scf:   20    -7570.297428    -7570.295932    -7570.339794  0.002152 -2.419057  0.178184
   scf:   21    -7570.298003    -7570.297042    -7570.341404  0.003381 -2.421408  0.162909
   scf:   22    -7570.299661    -7570.298403    -7570.342791  0.001694 -2.424366  0.146147
   scf:   23    -7570.301393    -7570.300016    -7570.344975  0.004051 -2.429992  0.115118
   scf:   24    -7570.303128    -7570.301725    -7570.346805  0.003743 -2.437381  0.078427
   scf:   25    -7570.302314    -7570.302088    -7570.347560  0.003069 -2.441909  0.057919
   scf:   26    -7570.302874    -7570.302511    -7570.347897  0.001500 -2.444916  0.052048
   scf:   27    -7570.302565    -7570.302556    -7570.348105  0.001467 -2.447070  0.037678
   scf:   28    -7570.302976    -7570.302779    -7570.348233  0.000933 -2.448819  0.028266
   scf:   29    -7570.302732    -7570.302764    -7570.348315  0.000885 -2.449986  0.022917
   scf:   30    -7570.302974    -7570.302873    -7570.348359  0.000562 -2.450721  0.022033
   scf:   31    -7570.302821    -7570.302849    -7570.348393  0.000457 -2.451219  0.016350
   scf:   32    -7570.302969    -7570.302910    -7570.348417  0.000398 -2.451614  0.018816
   scf:   33    -7570.302869    -7570.302891    -7570.348442  0.000301 -2.451986  0.014146
   scf:   34    -7570.302976    -7570.302934    -7570.348460  0.000354 -2.452312  0.015863
   scf:   35    -7570.302894    -7570.302915    -7570.348478  0.000299 -2.452627  0.012089
   scf:   36    -7570.302972    -7570.302944    -7570.348489  0.000279 -2.452864  0.013000
   scf:   37    -7570.302908    -7570.302926    -7570.348501  0.000262 -2.453122  0.010306
   scf:   38    -7570.302968    -7570.302947    -7570.348509  0.000241 -2.453333  0.010651
   scf:   39    -7570.302911    -7570.302930    -7570.348520  0.000278 -2.453607  0.008495
   scf:   40    -7570.302964    -7570.302947    -7570.348526  0.000242 -2.453831  0.008372
   scf:   41    -7570.302908    -7570.302928    -7570.348534  0.000271 -2.454103  0.007090
   scf:   42    -7570.302954    -7570.302941    -7570.348537  0.000187 -2.454270  0.006235
   scf:   43    -7570.302907    -7570.302924    -7570.348541  0.000179 -2.454456  0.005982
   scf:   44    -7570.302943    -7570.302934    -7570.348542  0.000106 -2.454541  0.005055
   scf:   45    -7570.302910    -7570.302922    -7570.348544  0.000100 -2.454652  0.005207
   scf:   46    -7570.302935    -7570.302928    -7570.348545  0.000064 -2.454699  0.004509
   scf:   47    -7570.302910    -7570.302919    -7570.348546  0.000071 -2.454785  0.004736
   scf:   48    -7570.302929    -7570.302924    -7570.348546  0.000053 -2.454827  0.004091
   scf:   49    -7570.302907    -7570.302916    -7570.348547  0.000069 -2.454914  0.004398
   scf:   50    -7570.302925    -7570.302920    -7570.348547  0.000050 -2.454956  0.003679
   scf:   51    -7570.302904    -7570.302912    -7570.348548  0.000065 -2.455041  0.004060
   scf:   52    -7570.302921    -7570.302917    -7570.348549  0.000040 -2.455069  0.003330
   scf:   53    -7570.302904    -7570.302910    -7570.348549  0.000044 -2.455129  0.003748
   scf:   54    -7570.302918    -7570.302914    -7570.348549  0.000026 -2.455134  0.003137
   scf:   55    -7570.302907    -7570.302910    -7570.348549  0.000019 -2.455160  0.003529
   scf:   56    -7570.302915    -7570.302913    -7570.348549  0.000013 -2.455152  0.003220
   scf:   57    -7570.302910    -7570.302912    -7570.348549  0.000006 -2.455154  0.003378
   scf:   58    -7570.302911    -7570.302911    -7570.348549  0.000002 -2.455162  0.003368
   scf:   59    -7570.302912    -7570.302912    -7570.348550  0.000061 -2.455417  0.002813
   scf:   60    -7570.302901    -7570.302907    -7570.348550  0.000038 -2.455640  0.002548
   scf:   61    -7570.302901    -7570.302904    -7570.348551  0.000083 -2.456021  0.002713
   scf:   62    -7570.302894    -7570.302899    -7570.348551  0.000034 -2.456130  0.002239
   scf:   63    -7570.302892    -7570.302895    -7570.348552  0.000118 -2.456494  0.002627
   scf:   64    -7570.302882    -7570.302889    -7570.348552  0.000036 -2.456569  0.001726
   scf:   65    -7570.302890    -7570.302890    -7570.348552  0.000055 -2.456657  0.002169
   scf:   66    -7570.302883    -7570.302886    -7570.348553  0.000020 -2.456646  0.001616
   scf:   67    -7570.302890    -7570.302888    -7570.348553  0.000024 -2.456636  0.001884
   scf:   68    -7570.302884    -7570.302886    -7570.348553  0.000012 -2.456632  0.001519
   scf:   69    -7570.302888    -7570.302887    -7570.348553  0.000028 -2.456626  0.001712
   scf:   70    -7570.302881    -7570.302884    -7570.348553  0.000022 -2.456617  0.001197
   scf:   71    -7570.302887    -7570.302886    -7570.348553  0.000037 -2.456608  0.001397
   scf:   72    -7570.302880    -7570.302883    -7570.348553  0.000019 -2.456601  0.000919

SCF Convergence by DM+H criterion
max |DM_out - DM_in|         :     0.0000185643
max |H_out - H_in|      (eV) :     0.0009185826
SCF cycle converged after 72 iterations

Using DM_out to compute the final energy and forces
No. of atoms with KB's overlaping orbs in proc 0. Max # of overlaps:      10      81

siesta: E_KS(eV) =            -7570.3029

siesta: Atomic forces (eV/Ang):
----------------------------------------
   Tot   -0.003215    0.015482   -0.014225
----------------------------------------
   Max    6.412449
   Res    2.818379    sqrt( Sum f_i^2 / 3N )
----------------------------------------
   Max    6.412449    constrained

Stress tensor Voigt[x,y,z,yz,xz,xy] (kbar):        0.49        3.43       -2.29        0.82        4.36       -1.16
(Free)E + p*V (eV/cell)    -7571.2945
Target enthalpy (eV/cell)    -7535.3043

siesta: Stress tensor (static) (eV/Ang**3):
         0.000303   -0.000726    0.002723
        -0.000726    0.002140    0.000513
         0.002723    0.000513   -0.001432

siesta: Pressure (static):         -0.53985963  kBar

siesta: Stress tensor (total) (eV/Ang**3):
         0.000303   -0.000726    0.002723
        -0.000726    0.002140    0.000513
         0.002723    0.000513   -0.001432

siesta: Pressure (total):         -0.53985963  kBar

                     ====================================
                        Begin CG opt. move =     12
                     ====================================
 Kpoints in:           18 . Kpoints trimmed:           14

siesta: k-grid: Number of k-points = 14
siesta: k-points from Monkhorst-Pack grid
siesta: k-cutoff (effective) =    20.617 Ang
siesta: k-point supercell and displacements
siesta: k-grid:     3     0     0      0.000
siesta: k-grid:     0     3     0      0.000
siesta: k-grid:     0     0     3      0.000

outcell: Unit cell vectors (Ang):
       13.742779   -0.196205    0.094413
       -0.230603   13.909379   -0.244728
        0.119639   -0.263859   15.038491

outcell: Cell vector modules (Ang)   :   13.744504   13.913443   15.041281
outcell: Cell angles (23,13,12) (deg):     92.0204     89.1364     91.7744
outcell: Cell volume (Ang**3)        :   2872.9470
<dSpData1D:S at geom step 12
  <sparsity:sparsity for geom step 12
    nrows_g=134 nrows=134 sparsity=.8326 nnzs=14950, refcount: 7>
  <dData1D:(new from dSpData1D) n=14950, refcount: 1>
refcount: 1>
new_DM -- step:    13
Re-using DM from previous geometries...
Number of DMs in history: 1
 DM extrapolation coefficients: 
1   1.00000
New DM after history re-use:
<dSpData2D:SpM extrapolated using coords
  <sparsity:sparsity for geom step 12
    nrows_g=134 nrows=134 sparsity=.8326 nnzs=14950, refcount: 9>
  <dData2D:(temp array for extrapolation) n=14950 m=1, refcount: 1>
refcount: 1>
Note: For starting DM, Qtot, Tr[D*S] =         80.00000000         79.88334053
No. of atoms with KB's overlaping orbs in proc 0. Max # of overlaps:      10      81

InitMesh: MESH = 144 x 150 x 160 = 3456000
InitMesh: Mesh cutoff (required, used) =   300.000   303.718 Ry
New grid distribution [1]: sub = 2

        iscf     Eharris(eV)        E_KS(eV)     FreeEng(eV)     dDmax    Ef(eV) dHmax(eV)
   scf:    1    -7285.002766    -7475.007341    -7475.085447  2.472263 -2.239649 59.942711
   scf:    2    -1941.165211    -5778.361068    -5778.374492 18.885608 -1.715609235.240109
   scf:    3    -8188.747261    -7494.350256    -7494.350256 18.923916 -3.378956 49.262513
   scf:    4    -6959.674164    -7424.595723    -7424.674963  1.938027 -2.362184 65.693089
   scf:    5    -7236.493596    -7511.004083    -7511.004087  2.383072 -2.909682 40.444807
   scf:    6    -7582.093062    -7562.465611    -7562.465718  0.868612 -2.568645 16.409994
   scf:    7    -7568.734445    -7565.909883    -7565.909892  0.125820 -2.515716 11.892898
   scf:    8    -7362.249698    -7509.467973    -7509.557932  1.347163 -2.314076 45.555654
   scf:    9    -7539.833807    -7567.180158    -7567.180223  1.368027 -2.521979  9.605379
   scf:   10    -7568.493558    -7567.874981    -7567.875445  0.034090 -2.506787  8.003264
   scf:   11    -7474.993676    -7542.447591    -7542.499350  1.200349 -2.339452 29.580964
   scf:   12    -7555.744894    -7568.507236    -7568.511143  1.179668 -2.478337  6.284340
   scf:   13    -7569.633963    -7569.135588    -7569.151523  0.053563 -2.453633  4.265612
   scf:   14    -7552.720475    -7564.979863    -7565.034105  0.586400 -2.399188 10.719012
   scf:   15    -7567.677155    -7569.497462    -7569.525560  0.522537 -2.439635  2.380604
   scf:   16    -7569.689866    -7569.618704    -7569.654167  0.046507 -2.432601  1.116177
   scf:   17    -7569.642372    -7569.648128    -7569.689450  0.042021 -2.427303  0.335434
   scf:   18    -7569.654680    -7569.652274    -7569.692967  0.005922 -2.428143  0.242492
   scf:   19    -7569.656401    -7569.654578    -7569.696086  0.005253 -2.428179  0.233030
   scf:   20    -7569.660275    -7569.657801    -7569.699724  0.002988 -2.429570  0.214835
   scf:   21    -7569.660463    -7569.659384    -7569.702162  0.005793 -2.431407  0.195878
