<preamble>

<basis_specs>
===============================================================================
Pb                   Z=  82    Mass=  207.20        Charge= 0.17977+309
Lmxo=2 Lmxkb= 3    BasisType=split      Semic=T
L=0  Nsemic=0  Cnfigmx=6
          i=1  nzeta=2  polorb=0  (6s)
            splnorm:   0.15000    
               vcte:    40.000    
               rinn:    4.7094    
               qcoe:    0.0000    
               qyuk:    0.0000    
               qwid:   0.10000E-01
                rcs:    5.2327      3.8584    
            lambdas:    1.0000      1.0000    
L=1  Nsemic=0  Cnfigmx=6
          i=1  nzeta=2  polorb=0  (6p)  (to be polarized non-perturbatively)
            splnorm:   0.15000    
               vcte:    40.000    
               rinn:    6.5084    
               qcoe:    0.0000    
               qyuk:    0.0000    
               qwid:   0.10000E-01
                rcs:    7.2243      5.4521    
            lambdas:    1.0000      1.0000    
L=2  Nsemic=1  Cnfigmx=6
          i=1  nzeta=1  polorb=0  (5d)  (semicore shell)
            splnorm:   0.15000    
               vcte:    40.000    
               rinn:    3.1697    
               qcoe:    0.0000    
               qyuk:    0.0000    
               qwid:   0.10000E-01
                rcs:    3.5183    
            lambdas:    1.0000    
          i=2  nzeta=1  polorb=0  (6d)  (non-perturbative polarization shell)
            splnorm:   0.15000    
               vcte:    40.000    
               rinn:    6.5084    
               qcoe:    0.0000    
               qyuk:    0.0000    
               qwid:   0.10000E-01
                rcs:    7.2243    
            lambdas:    1.0000    
-------------------------------------------------------------------------------
L=0  Nkbl=1  erefs: 0.17977+309
L=1  Nkbl=1  erefs: 0.17977+309
L=2  Nkbl=2  erefs: 0.17977+309 0.17977+309
L=3  Nkbl=1  erefs: 0.17977+309
===============================================================================
</basis_specs>

<pseudopotential_header>
 Pb pb nrl pcec
 ONCVPSP-4.2023-03-20Hamann's oncvpsp                        
 6s 2.00  r= 2.16/6p 2.00  r= 2.55/5d10.00  r= 2.11/5f 0.00  r= 2.11/   5d:6s:6p:
</pseudopotential_header>
</preamble>
Pb                            # Symbol
Pb                            # Label
   82                         # Atomic number
     14.0000000000                             # Valence charge
     207.200000000        # Mass 
     163.486243756        # Self energy 
   2   6                      # Lmax for basis, no. of nl orbitals 
   3   8                      # Lmax for projectors, no. of nl KB projectors
# PAOs:__________________________
  0  6  1  0  2.000000   #orbital l, n, z, is_polarized, population
 500    0.1048630110469081E-01     5.232664251240713     # npts, delta, cutoff
     0.000000000000000        0.5905021227967062E-01
    0.1048630110469081E-01    0.5911246400919054E-01
    0.2097260220938162E-01    0.5930323657064129E-01
    0.3145890331407242E-01    0.5962082547083613E-01
    0.4194520441876323E-01    0.6006468226001215E-01
    0.5243150552345404E-01    0.6063404198157842E-01
    0.6291780662814485E-01    0.6132792542056559E-01
    0.7340410773283565E-01    0.6214514222855124E-01
    0.8389040883752646E-01    0.6308429474874112E-01
    0.9437670994221728E-01    0.6414378250832928E-01
    0.1048630110469081        0.6532180735736642E-01
    0.1153493121515989        0.6661637923360321E-01
    0.1258356132562897        0.6802532253110720E-01
    0.1363219143609805        0.6954628304841447E-01
    0.1468082154656713        0.7117673548991159E-01
    0.1572945165703621        0.7291399149213641E-01
    0.1677808176750529        0.7475520814477948E-01
    0.1782671187797437        0.7669739697436713E-01
    0.1887534198844346        0.7873743335693527E-01
    0.1992397209891253        0.8087206632445147E-01
    0.2097260220938162        0.8309792872833457E-01
    0.2202123231985070        0.8541154772214653E-01
    0.2306986243031978        0.8780935552440734E-01
    0.2411849254078886        0.9028770042150706E-01
    0.2516712265125794        0.9284285796986882E-01
    0.2621575276172702        0.9547104235585134E-01
    0.2726438287219610        0.9816841787137917E-01
    0.2831301298266518        0.1009311104629467    
    0.2936164309313426        0.1037552193114659    
    0.3041027320360334        0.1066368284004178    
    0.3145890331407242        0.1095720180299213    
    0.3250753342454151        0.1125568762346518    
    0.3355616353501059        0.1155875100640218    
    0.3460479364547966        0.1186600566836818    
    0.3565342375594875        0.1217706942581955    
    0.3670205386641783        0.1249156525757080    
    0.3775068397688691        0.1280912233765220    
    0.3879931408735599        0.1312937703487598    
    0.3984794419782507        0.1345197387556783    
    0.4089657430829415        0.1377656646607378    
    0.4194520441876323        0.1410281837181806    
    0.4299383452923231        0.1443040394986637    
    0.4404246463970140        0.1475900913213779    
    0.4509109475017047        0.1508833215660963    
    0.4613972486063955        0.1541808424406963    
    0.4718835497110864        0.1574799021818909    
    0.4823698508157772        0.1607778906691772    
    0.4928561519204680        0.1640723444343681    
    0.5033424530251588        0.1673609510514645    
    0.5138287541298496        0.1706415528941079    
    0.5243150552345404        0.1739121502503421    
    0.5348013563392312        0.1771709037869628    
    0.5452876574439220        0.1804161363582876    
    0.5557739585486128        0.1836463341567583    
    0.5662602596533036        0.1868601472053604    
    0.5767465607579945        0.1900563891944099    
    0.5872328618626852        0.1932340366678160    
    0.5977191629673760        0.1963922275664375    
    0.6082054640720669        0.1995302591386436    
    0.6186917651767577        0.2026475852306147    
    0.6291780662814485        0.2057438129713064    
    0.6396643673861393        0.2088186988692978    
    0.6501506684908301        0.2118721443409830    
    0.6606369695955209        0.2149041906917162    
    0.6711232707002117        0.2179150135735685    
    0.6816095718049026        0.2209049169453115    
    0.6920958729095933        0.2238743265620886    
    0.7025821740142841        0.2268237830239611    
    0.7130684751189750        0.2297539344141196    
    0.7235547762236657        0.2326655285590376    
    0.7340410773283566        0.2355594049441811    
    0.7445273784330474        0.2384364863200932    
    0.7550136795377382        0.2412977700347344    
    0.7654999806424290        0.2441443191288816    
    0.7759862817471198        0.2469772532321373    
    0.7864725828518107        0.2497977392977220    
    0.7969588839565014        0.2526069822146887    
    0.8074451850611922        0.2554062153364695    
    0.8179314861658831        0.2581966909648404    
    0.8284177872705738        0.2609796708283624    
    0.8389040883752646        0.2637564165941814    
    0.8493903894799555        0.2665281804517553    
    0.8598766905846462        0.2692961958066110    
    0.8703629916893371        0.2720616681215701    
    0.8808492927940279        0.2748257659421533    
    0.8913355938987186        0.2775896121419197    
    0.9018218950034095        0.2803542754224606    
    0.9123081961081003        0.2831207621015668    
    0.9227944972127911        0.2858900082217672    
    0.9332807983174819        0.2886628720100021    
    0.9437670994221727        0.2914401267176128    
    0.9542534005268636        0.2942224538681952    
    0.9647397016315543        0.2970104369390400    
    0.9752260027362452        0.2998045555000661    
    0.9857123038409360        0.3026051798321560    
    0.9961986049456267        0.3054125660447964    
     1.006684906050318        0.3082268517108044    
     1.017171207155008        0.3110480520337515    
     1.027657508259699        0.3138760565614946    
     1.038143809364390        0.3167106264569904    
     1.048630110469081        0.3195513923351177    
     1.059116411573772        0.3223978526721610    
     1.069602712678462        0.3252493727921116    
     1.080089013783153        0.3281051844315478    
     1.090575314887844        0.3309643858827374    
     1.101061615992535        0.3338259427119990    
     1.111547917097226        0.3366886890484321    
     1.122034218201917        0.3395513294353671    
     1.132520519306607        0.3424124412351444    
     1.143006820411298        0.3452704775754079    
     1.153493121515989        0.3481237708229008    
     1.163979422620680        0.3509705365690548    
     1.174465723725370        0.3538088781091386    
     1.184952024830061        0.3566367913955463    
     1.195438325934752        0.3594521704432684    
     1.205924627039443        0.3622528131644893    
     1.216410928144134        0.3650364276072460    
     1.226897229248824        0.3678006385719110    
     1.237383530353515        0.3705429945774930    
     1.247869831458206        0.3732609751490588    
     1.258356132562897        0.3759519983957563    
     1.268842433667588        0.3786134288485647    
     1.279328734772279        0.3812425855256316    
     1.289815035876969        0.3838367501924219    
     1.300301336981660        0.3863931757833370    
     1.310787638086351        0.3889090949509670    
     1.321273939191042        0.3913817287089342    
     1.331760240295733        0.3938082951338196    
     1.342246541400423        0.3961860180920358    
     1.352732842505114        0.3985121359571629    
     1.363219143609805        0.4007839102839887    
     1.373705444714496        0.4029986344053637    
     1.384191745819187        0.4051536419189478    
     1.394678046923878        0.4072463150312259    
     1.405164348028568        0.4092740927271907    
     1.415650649133259        0.4112344787347478    
     1.426136950237950        0.4131250492542528    
     1.436623251342641        0.4149434604243029    
     1.447109552447331        0.4166874554965516    
     1.457595853552022        0.4183548716931845    
     1.468082154656713        0.4199436467229479    
     1.478568455761404        0.4214518249319711    
     1.489054756866095        0.4228775630685173    
     1.499541057970786        0.4242191356414154    
     1.510027359075476        0.4254749398546053    
     1.520513660180167        0.4266435001012111    
     1.530999961284858        0.4277234720030482    
     1.541486262389549        0.4287136459834022    
     1.551972563494240        0.4296129503621792    
     1.562458864598930        0.4304204539656265    
     1.572945165703621        0.4311353682437656    
     1.583431466808312        0.4317570488915687    
     1.593917767913003        0.4322849969712434    
     1.604404069017694        0.4327188595357154    
     1.614890370122384        0.4330584297547192    
     1.625376671227075        0.4333036465474491    
     1.635862972331766        0.4334545937274848    
     1.646349273436457        0.4335114986675065    
     1.656835574541148        0.4334747304934589    
     1.667321875645839        0.4333447978193894    
     1.677808176750529        0.4331223460364065    
     1.688294477855220        0.4328081541700905    
     1.698780778959911        0.4324031313233630    
     1.709267080064602        0.4319083127225140    
     1.719753381169292        0.4313248553859060    
     1.730239682273983        0.4306540334363703    
     1.740725983378674        0.4298972330793621    
     1.751212284483365        0.4290559472699770    
     1.761698585588056        0.4281317700936840    
     1.772184886692747        0.4271263908856137    
     1.782671187797437        0.4260415881149125    
     1.793157488902128        0.4248792230609725    
     1.803643790006819        0.4236412333405387    
     1.814130091111510        0.4223296262435144    
     1.824616392216201        0.4209464717832100    
     1.835102693320891        0.4194938960521564    
     1.845588994425582        0.4179740741907293    
     1.856075295530273        0.4163892234052749    
     1.866561596634964        0.4147415959771819    
     1.877047897739655        0.4130334722910608    
     1.887534198844345        0.4112671539098193    
     1.898020499949036        0.4094449567245414    
     1.908506801053727        0.4075692042059609    
     1.918993102158418        0.4056422207837951    
     1.929479403263109        0.4036663253796369    
     1.939965704367800        0.4016438251177354    
     1.950452005472490        0.3995770092375837    
     1.960938306577181        0.3974681432303683    
     1.971424607681872        0.3953194632211534    
     1.981910908786563        0.3931331706162681    
     1.992397209891253        0.3909114270351020    
     2.002883510995944        0.3886563495433570    
     2.013369812100635        0.3863700062036790    
     2.023856113205326        0.3840544119579806    
     2.034342414310017        0.3817115248541030    
     2.044828715414708        0.3793432426280280    
     2.055315016519399        0.3769513996514512    
     2.065801317624089        0.3745377642515740    
     2.076287618728780        0.3721040364105128    
     2.086773919833471        0.3696518458465466    
     2.097260220938161        0.3671827504827495    
     2.107746522042853        0.3646982352958986    
     2.118232823147543        0.3621997115683223    
     2.128719124252234        0.3596885165398219    
     2.139205425356925        0.3571659133239380    
     2.149691726461616        0.3546330915918037    
     2.160178027566306        0.3520911671653394    
     2.170664328670997        0.3495411868113105    
     2.181150629775688        0.3469841445393314    
     2.191636930880379        0.3444209978587871    
     2.202123231985070        0.3418526720825836    
     2.212609533089760        0.3392800599192919    
     2.223095834194451        0.3367040226897235    
     2.233582135299142        0.3341253912269961    
     2.244068436403833        0.3315449667258887    
     2.254554737508524        0.3289635215937536    
     2.265041038613214        0.3263818002757989    
     2.275527339717905        0.3238005200596943    
     2.286013640822596        0.3212203718597623    
     2.296499941927287        0.3186420209809359    
     2.306986243031978        0.3160661078629394    
     2.317472544136669        0.3134932488051094    
     2.327958845241359        0.3109240366723023    
     2.338445146346050        0.3083590415822530    
     2.348931447450741        0.3057988115748144    
     2.359417748555432        0.3032438732634765    
     2.369904049660123        0.3006947324695468    
     2.380390350764813        0.2981518748394490    
     2.390876651869504        0.2956157664454400    
     2.401362952974195        0.2930868543701832    
     2.411849254078886        0.2905655672756313    
     2.422335555183577        0.2880523159564141    
     2.432821856288268        0.2855474938782744    
     2.443308157392958        0.2830514777018695    
     2.453794458497649        0.2805646277922024    
     2.464280759602340        0.2780872887141756    
     2.474767060707031        0.2756197897145471    
     2.485253361811722        0.2731624451905693    
     2.495739662916412        0.2707155551457945    
     2.506225964021103        0.2682794056332247    
     2.516712265125794        0.2658542691862398    
     2.527198566230485        0.2634404052374266    
     2.537684867335176        0.2610380605260001    
     2.548171168439866        0.2586474694931500    
     2.558657469544557        0.2562688546681626    
     2.569143770649248        0.2539024270415512    
     2.579630071753939        0.2515483864302207    
     2.590116372858629        0.2492069218274204    
     2.600602673963321        0.2468782117492274    
     2.611088975068011        0.2445624245667560    
     2.621575276172702        0.2422597188325063    
     2.632061577277393        0.2399702435935456    
     2.642547878382083        0.2376941386983336    
     2.653034179486774        0.2354315350946796    
     2.663520480591465        0.2331825551184759    
     2.674006781696156        0.2309473127746771    
     2.684493082800847        0.2287259140101546    
     2.694979383905538        0.2265184569787686    
     2.705465685010228        0.2243250322988582    
     2.715951986114920        0.2221457233033454    
     2.726438287219610        0.2199806062826696    
     2.736924588324301        0.2178297507207445    
     2.747410889428992        0.2156932195241137    
     2.757897190533682        0.2135710692444965    
     2.768383491638373        0.2114633502949114    
     2.778869792743064        0.2093701071595656    
     2.789356093847755        0.2072913785976316    
     2.799842394952446        0.2052271978411257    
     2.810328696057137        0.2031775927870492    
     2.820814997161827        0.2011425861839215    
     2.831301298266518        0.1991221958128720    
     2.841787599371209        0.1971164346634427    
     2.852273900475900        0.1951253111042560    
     2.862760201580591        0.1931488290486803    
     2.873246502685281        0.1911869881156180    
     2.883732803789972        0.1892397837855830    
     2.894219104894663        0.1873072075521652    
     2.904705405999354        0.1853892470690317    
     2.915191707104045        0.1834858862925800    
     2.925678008208735        0.1815971056203569    
     2.936164309313426        0.1797228820253788    
     2.946650610418117        0.1778631891864553    
     2.957136911522808        0.1760179976146243    
     2.967623212627499        0.1741872747758108    
     2.978109513732190        0.1723709852098199    
     2.988595814836880        0.1705690906457605    
     2.999082115941571        0.1687815501139988    
     3.009568417046262        0.1670083200547407    
     3.020054718150953        0.1652493544233318    
     3.030541019255644        0.1635046047923794    
     3.041027320360334        0.1617740204507758    
     3.051513621465025        0.1600575484997045    
     3.061999922569716        0.1583551339457200    
     3.072486223674407        0.1566667197909961    
     3.082972524779098        0.1549922471208036    
     3.093458825883789        0.1533316551882957    
     3.103945126988479        0.1516848814966893    
     3.114431428093170        0.1500518618789015    
     3.124917729197861        0.1484325305747320    
     3.135404030302551        0.1468268203056376    
     3.145890331407243        0.1452346623471818    
     3.156376632511933        0.1436559865992209    
     3.166862933616624        0.1420907216538838    
     3.177349234721315        0.1405387948614269    
     3.187835535826006        0.1390001323940050    
     3.198321836930696        0.1374746593074254    
     3.208808138035387        0.1359622996009297    
     3.219294439140078        0.1344629762750904    
     3.229780740244769        0.1329766113878433    
     3.240267041349460        0.1315031261087211    
     3.250753342454150        0.1300424407713382    
     3.261239643558841        0.1285944749241860    
     3.271725944663532        0.1271591473797730    
     3.282212245768223        0.1257363762621549    
     3.292698546872914        0.1243260790529206    
     3.303184847977604        0.1229281726356565    
     3.313671149082295        0.1215425733389488    
     3.324157450186986        0.1201691969779490    
     3.334643751291677        0.1188079588945628    
     3.345130052396368        0.1174587739962858    
     3.355616353501059        0.1161215567937334    
     3.366102654605749        0.1147962214369001    
     3.376588955710440        0.1134826817501850    
     3.387075256815131        0.1121808512662189    
     3.397561557919822        0.1108906432585289    
     3.408047859024513        0.1096119707730718    
     3.418534160129203        0.1083447466586710    
     3.429020461233894        0.1070888835963876    
     3.439506762338585        0.1058442941278534    
     3.449993063443276        0.1046108906826031    
     3.460479364547967        0.1033885856044314    
     3.470965665652658        0.1021772911768013    
     3.481451966757348        0.1009769196473340    
     3.491938267862039        0.9978738325140488E-01
     3.502424568966730        0.9860859423487496E-01
     3.512910870071421        0.9744046487598061E-01
     3.523397171176112        0.9628290750640674E-01
     3.533883472280802        0.9513583453156683E-01
     3.544369773385493        0.9399915845011596E-01
     3.554856074490184        0.9287279187271524E-01
     3.565342375594875        0.9175664754007558E-01
     3.575828676699566        0.9065063834029478E-01
     3.586314977804256        0.8955467732551603E-01
     3.596801278908947        0.8846867772792312E-01
     3.607287580013638        0.8739255297509239E-01
     3.617773881118329        0.8632621670472419E-01
     3.628260182223019        0.8526958277877029E-01
     3.638746483327711        0.8422256529697524E-01
     3.649232784432401        0.8318507860984767E-01
     3.659719085537092        0.8215703733108250E-01
     3.670205386641783        0.8113835634944626E-01
     3.680691687746473        0.8012895084014730E-01
     3.691177988851164        0.7912873627569841E-01
     3.701664289955855        0.7813762843629818E-01
     3.712150591060546        0.7715554341973360E-01
     3.722636892165237        0.7618239765083183E-01
     3.733123193269928        0.7521810789046016E-01
     3.743609494374618        0.7426259124409915E-01
     3.754095795479309        0.7331576516999826E-01
     3.764582096584000        0.7237754748693062E-01
     3.775068397688691        0.7144785638155053E-01
     3.785554698793382        0.7052661041537424E-01
     3.796040999898072        0.6961372853139210E-01
     3.806527301002763        0.6870913006032599E-01
     3.817013602107454        0.6781273472653999E-01
     3.827499903212145        0.6692446265361750E-01
     3.837986204316836        0.6604423436961392E-01
     3.848472505421527        0.6517197081199783E-01
     3.858958806526217        0.6430759333228794E-01
     3.869445107630908        0.6345102370039563E-01
     3.879931408735599        0.6260218410868189E-01
     3.890417709840290        0.6176099717574239E-01
     3.900904010944981        0.6092738594992318E-01
     3.911390312049671        0.6010127391258100E-01
     3.921876613154362        0.5928258498109198E-01
     3.932362914259053        0.5847124351162054E-01
     3.942849215363744        0.5766717430165486E-01
     3.953335516468435        0.5687030259231561E-01
     3.963821817573125        0.5608055407044867E-01
     3.974308118677816        0.5529785487050338E-01
     3.984794419782507        0.5452213157621119E-01
     3.995280720887198        0.5375331122206347E-01
     4.005767021991889        0.5299132129460146E-01
     4.016253323096580        0.5223608973351976E-01
     4.026739624201270        0.5148754493259364E-01
     4.037225925305961        0.5074561574043499E-01
     4.047712226410652        0.5001023146108136E-01
     4.058198527515342        0.4928132185442555E-01
     4.068684828620033        0.4855881713648872E-01
     4.079171129724724        0.4784264797954701E-01
     4.089657430829416        0.4713274551211336E-01
     4.100143731934106        0.4642904131877958E-01
     4.110630033038797        0.4573146743992551E-01
     4.121116334143488        0.4503995637129762E-01
     4.131602635248179        0.4435444106346482E-01
     4.142088936352869        0.4367485492115249E-01
     4.152575237457560        0.4300113180246212E-01
     4.163061538562251        0.4233320601797962E-01
     4.173547839666941        0.4167101232977456E-01
     4.184034140771632        0.4101448595029286E-01
     4.194520441876323        0.4036356254115998E-01
     4.205006742981014        0.3971817821195267E-01
     4.215493044085705        0.3907826951855608E-01
     4.225979345190396        0.3844377346205050E-01
     4.236465646295087        0.3781462748696068E-01
     4.246951947399777        0.3719076947929134E-01
     4.257438248504468        0.3657213776409703E-01
     4.267924549609159        0.3595867110796121E-01
     4.278410850713850        0.3535030871422196E-01
     4.288897151818540        0.3474699021602390E-01
     4.299383452923231        0.3414865567897860E-01
     4.309869754027922        0.3355524560042671E-01
     4.320356055132613        0.3296670091119357E-01
     4.330842356237303        0.3238296296332723E-01
     4.341328657341995        0.3180397353225851E-01
     4.351814958446686        0.3122967481573357E-01
     4.362301259551376        0.3066000943093869E-01
     4.372787560656067        0.3009492041167760E-01
     4.383273861760758        0.2953435120603500E-01
     4.393760162865449        0.2897824567388776E-01
     4.404246463970139        0.2842654808434983E-01
     4.414732765074830        0.2787920311319982E-01
     4.425219066179521        0.2733615584027741E-01
     4.435705367284211        0.2679735174682253E-01
     4.446191668388902        0.2626273671278039E-01
     4.456677969493594        0.2573225701407763E-01
     4.467164270598285        0.2520585931986546E-01
     4.477650571702975        0.2468349068973254E-01
     4.488136872807666        0.2416509857088953E-01
     4.498623173912357        0.2365063079532598E-01
     4.509109475017048        0.2314003557694253E-01
     4.519595776121738        0.2263326150865739E-01
     4.530082077226429        0.2213025755949146E-01
     4.540568378331120        0.2163097307163145E-01
     4.551054679435810        0.2113535775747202E-01
     4.561540980540501        0.2064336169664004E-01
     4.572027281645192        0.2015493533300031E-01
     4.582513582749884        0.1967002947164512E-01
     4.592999883854574        0.1918859527586791E-01
     4.603486184959265        0.1871058426412254E-01
     4.613972486063956        0.1823594830696981E-01
     4.624458787168646        0.1776463962401062E-01
     4.634945088273337        0.1729661078080843E-01
     4.645431389378028        0.1683181468580099E-01
     4.655917690482719        0.1637020458720258E-01
     4.666403991587409        0.1591173406989690E-01
     4.676890292692100        0.1545635705232372E-01
     4.687376593796791        0.1500402778335604E-01
     4.697862894901482        0.1455470083917362E-01
     4.708349196006173        0.1410833112012896E-01
     4.718835497110864        0.1366487384760932E-01
     4.729321798215555        0.1322428456089401E-01
     4.739808099320245        0.1278651911410967E-01
     4.750294400424936        0.1235153369283649E-01
     4.760780701529627        0.1191928532435222E-01
     4.771267002634318        0.1148973562477780E-01
     4.781753303739008        0.1106286240959032E-01
     4.792239604843699        0.1063867960153302E-01
     4.802725905948390        0.1021725977354716E-01
     4.813212207053081        0.9798752578909548E-02
     4.823698508157772        0.9383395212635060E-02
     4.834184809262463        0.8971514290764192E-02
     4.844671110367154        0.8563520500133499E-02
     4.855157411471844        0.8159898086185561E-02
     4.865643712576535        0.7761191210428101E-02
     4.876130013681226        0.7367988849033179E-02
     4.886616314785917        0.6980909469716409E-02
     4.897102615890607        0.6600586330559994E-02
     4.907588916995298        0.6227653930205583E-02
     4.918075218099989        0.5862735905699879E-02
     4.928561519204679        0.5506434510046804E-02
     4.939047820309370        0.5159321690792343E-02
     4.949534121414062        0.4821931719633495E-02
     4.960020422518753        0.4494755279650801E-02
     4.970506723623443        0.4178234892658285E-02
     4.980993024728134        0.3872761558018423E-02
     4.991479325832825        0.3578672471602529E-02
     5.001965626937515        0.3296249696259519E-02
     5.012451928042206        0.3025719661039011E-02
     5.022938229146897        0.2767253374035096E-02
     5.033424530251588        0.2520967242076831E-02
     5.043910831356278        0.2286924398912339E-02
     5.054397132460969        0.2065136451513884E-02
     5.064883433565661        0.1855565561284162E-02
     5.075369734670351        0.1658126782866173E-02
     5.085856035775042        0.1472690587481849E-02
     5.096342336879733        0.1299085499504968E-02
     5.106828637984424        0.1137100773117113E-02
     5.117314939089114        0.9864890282312293E-03
     5.127801240193805        0.8469687473794738E-03
     5.138287541298496        0.7182265000547207E-03
     5.148773842403187        0.5999186918298074E-03
     5.159260143507877        0.4916724967934993E-03
     5.169746444612568        0.3930853390890904E-03
     5.180232745717259        0.3037216231867296E-03
     5.190719046821950        0.2231037282337012E-03
     5.201205347926641        0.1506893456059690E-03
     5.211691649031332        0.8581001362232151E-04
     5.222177950136023        0.2744448589411545E-04
     5.232664251240713         0.000000000000000    
  0  6  2  0  0.000000   #orbital l, n, z, is_polarized, population
 500    0.7732177929719463E-02     3.858356786930012     # npts, delta, cutoff
     0.000000000000000       -0.3679604788391843    
    0.7732177929719463E-02   -0.3678843706428904    
    0.1546435585943893E-01   -0.3676468448723160    
    0.2319653378915839E-01   -0.3672512094594861    
    0.3092871171887785E-01   -0.3666978302629602    
    0.3866088964859731E-01   -0.3659872173856765    
    0.4639306757831678E-01   -0.3651200249476274    
    0.5412524550803624E-01   -0.3640970500337331    
    0.6185742343775570E-01   -0.3629192313200599    