Executable      : siesta
Version         : 5.4.2
Architecture    : x86_64
Compiler version: GNU-14.3.0
Compiler flags  : -march=nocona -mtune=haswell -ftree-vectorize -fPIC -fstack-protector-strong -fno-plt -O2 -ffunction-sections -pipe -isystem <prefix>/include -I<prefix>/_build_env/include -fdebug-prefix-map=<prefix>/work=/usr/local/src/conda/siesta-5.4.2 -fdebug-prefix-map=<prefix>=/usr/local/src/conda-prefix -I<prefix>/lib -fallow-argument-mismatch -O3
Parallelisations: none
NetCDF support
NetCDF-4 support
Lua support
DFT-D3 support

Runtime information:
* Directory : /home/UAB/1673794/Documents/relaxacio/run
* Running in serial mode.
>> Start of run:   4-JUN-2026  10:07:13

                           *********************** 
                           *  WELCOME TO SIESTA  * 
                           *********************** 

 NOTE: Siesta V5 introduces some new defaults for basis-set generation
 NOTE: which might lead to slightly different numerical results.
 NOTE: Please see the manual for full details and compatibility measures.


reinit: Reading from file relaxation.fdf

reinit: -----------------------------------------------------------------------
reinit: System Name: c-BN exp. latt.
reinit: -----------------------------------------------------------------------
reinit: System Label: relaxation
reinit: -----------------------------------------------------------------------

initatom: Reading input for the pseudopotentials and atomic orbitals ----------
Species number:   1 Atomic number:   22 Label: Ti
Species number:   2 Atomic number:   40 Label: Zr
Species number:   3 Atomic number:   82 Label: Pb

Ground state valence configuration (from tables):   4s02  4p00  3d02  4f00
Ground state valence configuration (from tables):   5s02  5p00  4d02  4f00
Ground state valence configuration (from tables):   6s02  6p02  6d00  5f00

---- Processing specs for species: Ti
Reading pseudopotential information in PSML from:
  Ti.psml
PSML file version: 1.1
Using libxc ids:  101 130
GGA--PBE XC_GGA_X_PBE--XC_GGA_C_PBE pb
PSML uuid: caed23e0-be41-11e7-4603-0bd897f88bea
Semicore shell(s) with  8 electrons included in the valence for Ti

---- Processing specs for species: Zr
Reading pseudopotential information in PSML from:
  Zr.psml
PSML file version: 1.1
Using libxc ids:  101 130
GGA--PBE XC_GGA_X_PBE--XC_GGA_C_PBE pb
PSML uuid: 855db780-be42-11e7-4bdf-8c7dadbbbec5
Semicore shell(s) with  8 electrons included in the valence for Zr

---- Processing specs for species: Pb
Reading pseudopotential information in PSML from:
  Pb.psml
PSML file version: 1.1
Using libxc ids:  101 130
GGA--PBE XC_GGA_X_PBE--XC_GGA_C_PBE pb
PSML uuid: 02ca7ab0-c73d-11ed-7328-fa0ea6bbcf0f
Semicore shell(s) with 10 electrons included in the valence for Pb

---- Pseudopotential check for Ti

Pseudized shells:
3s( 2.00) rc: 1.36
3p( 6.00) rc: 1.31
3d( 2.00) rc: 1.66
Valence configuration for ps generation: 3s:3p:3d:4s: Total charge:  12.000000
Semicore shell(s): 3s 3p
Fallback to non-perturbative polarization scheme for Ti
Please see the manual if this is not desired in principle

---- Pseudopotential check for Zr

Pseudized shells:
4s( 2.00) rc: 1.57
4p( 6.00) rc: 1.57
4d( 2.00) rc: 1.51
Valence configuration for ps generation: 4s:4p:4d:5s: Total charge:  12.000000
Semicore shell(s): 4s 4p
Fallback to non-perturbative polarization scheme for Zr
Please see the manual if this is not desired in principle

---- Pseudopotential check for Pb

Pseudized shells:
6s( 2.00) rc: 2.16
6p( 2.00) rc: 2.55
5d(10.00) rc: 2.11
5f( 0.00) rc: 2.11
Valence configuration for ps generation: 5d:6s:6p: Total charge:  14.000000
Semicore shell(s): 5d
Fallback to non-perturbative polarization scheme for Pb
Please see the manual if this is not desired in principle
For Ti, standard SIESTA heuristics set lmxkb to 3
 (one more than the basis l, including polarization orbitals).
Use PS.lmax or PS.KBprojectors blocks to override.
For Zr, standard SIESTA heuristics set lmxkb to 3
 (one more than the basis l, including polarization orbitals).
Use PS.lmax or PS.KBprojectors blocks to override.
For Pb, standard SIESTA heuristics set lmxkb to 3
 (one more than the basis l, including polarization orbitals).
Use PS.lmax or PS.KBprojectors blocks to override.
Ti pseudopotential only contains V_ls up to l=2 -- lmxkb reset.
Zr pseudopotential only contains V_ls up to l=2 -- lmxkb reset.

<basis_specs>
===============================================================================
Ti                   Z=  22    Mass=  47.867        Charge= 0.17977+309
Lmxo=2 Lmxkb= 2    BasisType=split      Semic=T
L=0  Nsemic=1  Cnfigmx=4
          i=1  nzeta=1  polorb=0  (3s)  (semicore shell)
            splnorm:   0.15000    
               vcte:    40.000    
               rinn:  -0.90000    
               qcoe:    0.0000    
               qyuk:    0.0000    
               qwid:   0.10000E-01
                rcs:    0.0000    
            lambdas:    1.0000    
          i=2  nzeta=2  polorb=0  (4s)  (to be polarized non-perturbatively)
            splnorm:   0.15000    
               vcte:    40.000    
               rinn:  -0.90000    
               qcoe:    0.0000    
               qyuk:    0.0000    
               qwid:   0.10000E-01
                rcs:    0.0000      0.0000    
            lambdas:    1.0000      1.0000    
L=1  Nsemic=1  Cnfigmx=4
          i=1  nzeta=1  polorb=0  (3p)  (semicore shell)
            splnorm:   0.15000    
               vcte:    40.000    
               rinn:  -0.90000    
               qcoe:    0.0000    
               qyuk:    0.0000    
               qwid:   0.10000E-01
                rcs:    0.0000    
            lambdas:    1.0000    
          i=2  nzeta=1  polorb=0  (4p)  (non-perturbative polarization shell)
            splnorm:   0.15000    
               vcte:    40.000    
               rinn:  -0.90000    
               qcoe:    0.0000    
               qyuk:    0.0000    
               qwid:   0.10000E-01
                rcs:    0.0000    
            lambdas:    1.0000    
L=2  Nsemic=0  Cnfigmx=3
          i=1  nzeta=2  polorb=0  (3d)
            splnorm:   0.15000    
               vcte:    40.000    
               rinn:  -0.90000    
               qcoe:    0.0000    
               qyuk:    0.0000    
               qwid:   0.10000E-01
                rcs:    0.0000      0.0000    
            lambdas:    1.0000      1.0000    
-------------------------------------------------------------------------------
L=0  Nkbl=2  erefs: 0.17977+309 0.17977+309
L=1  Nkbl=2  erefs: 0.17977+309 0.17977+309
L=2  Nkbl=1  erefs: 0.17977+309
===============================================================================
</basis_specs>

Using PAO.SplitTailNorm
atom: Called for Ti                    (Z =  22)
Maximum radius (at nrval) set to   50.00000 8518

read_vps: Pseudopotential generation method:
read_vps: ONCVPSP-3.Hamann's oncvpsp                        
Valence charge in pseudo generation:   12.00000

read_vps: Pseudopotential includes a core correction:
read_vps: Pseudo-core for xc-correction

xc_check: Exchange-correlation functional:
xc_check: GGA Perdew, Burke & Ernzerhof 1996
Got Vlocal (oncv-fit) from psml data
Choosing vlocal chloc cutoff:  3.029916
qtot up to nchloc:   12.00014688
atom: Maximum radius for chlocal:    3.02992
atom: Maximum radius for r*vlocal+2*Zval:    3.02992
Reading KB projs from Ti psml data
Using scalar-relativistic projectors in PSML file

PSML: Kleinman-Bylander projectors: 
   l= 0   rc=  1.375180   Ekb= 22.724697
   l= 0   rc=  1.375180   Ekb=  2.527278
   l= 1   rc=  1.326200   Ekb=  3.950805
   l= 1   rc=  1.327537   Ekb= -0.169333
   l= 2   rc=  1.683555   Ekb=-10.372181
   l= 2   rc=  1.683555   Ekb= -2.954901

PSML: Total number of  Kleinman-Bylander projectors:  18
atom: -------------------------------------------------------------------------

atom: SANKEY-TYPE ORBITALS:
atom: Selected multiple-zeta basis: split     

SPLIT: Orbitals with angular momentum L= 0

SPLIT: Basis orbitals for state 3s

SPLIT: PAO cut-off radius determined from an
SPLIT: energy shift=  0.014700 Ry
Split based on tail norm

   izeta = 1
                 lambda =    1.000000
                     rc =    2.743382
                 energy =   -4.587427
                kinetic =    2.295728
    potential(screened) =   -6.883155
       potential(ionic) =  -23.023113

SPLIT: Basis orbitals for state 4s

SPLIT: PAO cut-off radius determined from an
SPLIT: energy shift=  0.014700 Ry
Split based on tail norm

   izeta = 1
                 lambda =    1.000000
                     rc =    7.238756
                 energy =   -0.322629
                kinetic =    0.756972
    potential(screened) =   -1.079601
       potential(ionic) =   -8.771603

   izeta = 2
                 rmatch =    5.512495
              splitnorm =    0.150000
                 energy =   -0.177408
                kinetic =    1.330920
    potential(screened) =   -1.508328
       potential(ionic) =  -10.669173

SPLIT: Orbitals with angular momentum L= 1

SPLIT: Basis orbitals for state 3p

SPLIT: PAO cut-off radius determined from an
SPLIT: energy shift=  0.014700 Ry
Split based on tail norm

   izeta = 1
                 lambda =    1.000000
                     rc =    3.057399
                 energy =   -2.840011
                kinetic =    4.971050
    potential(screened) =   -7.811061
       potential(ionic) =  -23.491220

SPLIT: Basis orbitals for state 4p
SPLIT: Non-perturbative polarization orbs for state 4s
SPLIT: rc(1st zeta) (re)set to: 7.2388 (expansion factor: 1.0000)
Split based on tail norm

   izeta = 1
                 lambda =    1.000000
                     rc =    7.238756
                 energy =   -0.042704
                kinetic =    0.897225
    potential(screened) =   -0.939930
       potential(ionic) =   -7.669880

SPLIT: Orbitals with angular momentum L= 2

SPLIT: Basis orbitals for state 3d

SPLIT: PAO cut-off radius determined from an
SPLIT: energy shift=  0.014700 Ry
Split based on tail norm

   izeta = 1
                 lambda =    1.000000
                     rc =    4.897820
                 energy =   -0.296937
                kinetic =    6.611402
    potential(screened) =   -6.908339
       potential(ionic) =  -20.527744

   izeta = 2
                 rmatch =    3.322857
              splitnorm =    0.150000
                 energy =   -0.173610
                kinetic =    8.409725
    potential(screened) =   -8.583335
       potential(ionic) =  -23.480112
atom: Total number of Sankey-type orbitals: 19

atm_pop: Valence configuration (for local Pseudopot. screening):
 3s( 2.00) 4s( 2.00)                                                  
 3p( 6.00) 4p( 0.00)                                                  
 3d( 2.00)                                                            
Vna: chval, zval:   12.00000  12.00000

Vna:  Cut-off radius for the neutral-atom potential:   7.238756
comcore: Pseudo-core radius Rcore=  1.766828

atom: _________________________________________________________________________

<basis_specs>
===============================================================================
Zr                   Z=  40    Mass=  91.224        Charge= 0.17977+309
Lmxo=2 Lmxkb= 2    BasisType=split      Semic=T
L=0  Nsemic=1  Cnfigmx=5
          i=1  nzeta=1  polorb=0  (4s)  (semicore shell)
            splnorm:   0.15000    
               vcte:    40.000    
               rinn:  -0.90000    
               qcoe:    0.0000    
               qyuk:    0.0000    
               qwid:   0.10000E-01
                rcs:    0.0000    
            lambdas:    1.0000    
          i=2  nzeta=2  polorb=0  (5s)  (to be polarized non-perturbatively)
            splnorm:   0.15000    
               vcte:    40.000    
               rinn:  -0.90000    
               qcoe:    0.0000    
               qyuk:    0.0000    
               qwid:   0.10000E-01
                rcs:    0.0000      0.0000    
            lambdas:    1.0000      1.0000    
L=1  Nsemic=1  Cnfigmx=5
          i=1  nzeta=1  polorb=0  (4p)  (semicore shell)
            splnorm:   0.15000    
               vcte:    40.000    
               rinn:  -0.90000    
               qcoe:    0.0000    
               qyuk:    0.0000    
               qwid:   0.10000E-01
                rcs:    0.0000    
            lambdas:    1.0000    
          i=2  nzeta=1  polorb=0  (5p)  (non-perturbative polarization shell)
            splnorm:   0.15000    
               vcte:    40.000    
               rinn:  -0.90000    
               qcoe:    0.0000    
               qyuk:    0.0000    
               qwid:   0.10000E-01
                rcs:    0.0000    
            lambdas:    1.0000    
L=2  Nsemic=0  Cnfigmx=4
          i=1  nzeta=2  polorb=0  (4d)
            splnorm:   0.15000    
               vcte:    40.000    
               rinn:  -0.90000    
               qcoe:    0.0000    
               qyuk:    0.0000    
               qwid:   0.10000E-01
                rcs:    0.0000      0.0000    
            lambdas:    1.0000      1.0000    
-------------------------------------------------------------------------------
L=0  Nkbl=2  erefs: 0.17977+309 0.17977+309
L=1  Nkbl=2  erefs: 0.17977+309 0.17977+309
L=2  Nkbl=1  erefs: 0.17977+309
===============================================================================
</basis_specs>

Using PAO.SplitTailNorm
atom: Called for Zr                    (Z =  40)
Maximum radius (at nrval) set to   50.00000 8518

read_vps: Pseudopotential generation method:
read_vps: ONCVPSP-3.Hamann's oncvpsp                        
Valence charge in pseudo generation:   12.00000

read_vps: Pseudopotential includes a core correction:
read_vps: Pseudo-core for xc-correction

xc_check: Exchange-correlation functional:
xc_check: GGA Perdew, Burke & Ernzerhof 1996
Got Vlocal (oncv-fit) from psml data
Choosing vlocal chloc cutoff:  5.301264
qtot up to nchloc:   11.99990854
atom: Maximum radius for chlocal:    5.30126
atom: Maximum radius for r*vlocal+2*Zval:    5.30126
Reading KB projs from Zr psml data
Using scalar-relativistic projectors in PSML file

PSML: Kleinman-Bylander projectors: 
   l= 0   rc=  1.584930   Ekb= 21.243531
   l= 0   rc=  1.583336   Ekb=  1.797610
   l= 1   rc=  1.584930   Ekb= 11.699674
   l= 1   rc=  1.584930   Ekb=  1.500681
   l= 2   rc=  1.528534   Ekb=  3.062955
   l= 2   rc=  1.528534   Ekb=  1.006046

PSML: Total number of  Kleinman-Bylander projectors:  18
atom: -------------------------------------------------------------------------

atom: SANKEY-TYPE ORBITALS:
atom: Selected multiple-zeta basis: split     

SPLIT: Orbitals with angular momentum L= 0

SPLIT: Basis orbitals for state 4s

SPLIT: PAO cut-off radius determined from an
SPLIT: energy shift=  0.014700 Ry
Split based on tail norm

   izeta = 1
                 lambda =    1.000000
                     rc =    3.057399
                 energy =   -3.989579
                kinetic =    1.964188
    potential(screened) =   -5.953767
       potential(ionic) =  -18.785964

SPLIT: Basis orbitals for state 5s

SPLIT: PAO cut-off radius determined from an
SPLIT: energy shift=  0.014700 Ry
Split based on tail norm

   izeta = 1
                 lambda =    1.000000
                     rc =    7.504465
                 energy =   -0.316671
                kinetic =    0.746015
    potential(screened) =   -1.062686
       potential(ionic) =   -8.013541

   izeta = 2
                 rmatch =    5.766684
              splitnorm =    0.150000
                 energy =   -0.115225
                kinetic =    1.273017
    potential(screened) =   -1.388242
       potential(ionic) =   -9.582431

SPLIT: Orbitals with angular momentum L= 1

SPLIT: Basis orbitals for state 4p

SPLIT: PAO cut-off radius determined from an
SPLIT: energy shift=  0.014700 Ry
Split based on tail norm

   izeta = 1
                 lambda =    1.000000
                     rc =    3.497241
                 energy =   -2.369448
                kinetic =    3.125043
    potential(screened) =   -5.494491
       potential(ionic) =  -17.822722

SPLIT: Basis orbitals for state 5p
SPLIT: Non-perturbative polarization orbs for state 5s
SPLIT: rc(1st zeta) (re)set to: 7.5045 (expansion factor: 1.0000)
Split based on tail norm

   izeta = 1
                 lambda =    1.000000
                     rc =    7.504465
                 energy =   -0.040844
                kinetic =    0.816923
    potential(screened) =   -0.857767
       potential(ionic) =   -7.000030

SPLIT: Orbitals with angular momentum L= 2

SPLIT: Basis orbitals for state 4d

SPLIT: PAO cut-off radius determined from an
SPLIT: energy shift=  0.014700 Ry
Split based on tail norm

   izeta = 1
                 lambda =    1.000000
                     rc =    5.842271
                 energy =   -0.248110
                kinetic =    2.967378
    potential(screened) =   -3.215488
       potential(ionic) =  -13.243078

   izeta = 2
                 rmatch =    4.180541
              splitnorm =    0.150000
                 energy =   -0.137187
                kinetic =    3.955843
    potential(screened) =   -4.093031
       potential(ionic) =  -15.155454
atom: Total number of Sankey-type orbitals: 19

atm_pop: Valence configuration (for local Pseudopot. screening):
 4s( 2.00) 5s( 2.00)                                                  
 4p( 6.00) 5p( 0.00)                                                  
 4d( 2.00)                                                            
Vna: chval, zval:   12.00000  12.00000

Vna:  Cut-off radius for the neutral-atom potential:   7.504465
comcore: Pseudo-core radius Rcore=  2.643368

atom: _________________________________________________________________________

<basis_specs>
===============================================================================
Pb                   Z=  82    Mass=  207.20        Charge= 0.17977+309
Lmxo=2 Lmxkb= 3    BasisType=split      Semic=T
L=0  Nsemic=0  Cnfigmx=6
          i=1  nzeta=2  polorb=0  (6s)
            splnorm:   0.15000    
               vcte:    40.000    
               rinn:  -0.90000    
               qcoe:    0.0000    
               qyuk:    0.0000    
               qwid:   0.10000E-01
                rcs:    0.0000      0.0000    
            lambdas:    1.0000      1.0000    
L=1  Nsemic=0  Cnfigmx=6
          i=1  nzeta=2  polorb=0  (6p)  (to be polarized non-perturbatively)
            splnorm:   0.15000    
               vcte:    40.000    
               rinn:  -0.90000    
               qcoe:    0.0000    
               qyuk:    0.0000    
               qwid:   0.10000E-01
                rcs:    0.0000      0.0000    
            lambdas:    1.0000      1.0000    
L=2  Nsemic=1  Cnfigmx=6
          i=1  nzeta=1  polorb=0  (5d)  (semicore shell)
            splnorm:   0.15000    
               vcte:    40.000    
               rinn:  -0.90000    
               qcoe:    0.0000    
               qyuk:    0.0000    
               qwid:   0.10000E-01
                rcs:    0.0000    
            lambdas:    1.0000    
          i=2  nzeta=1  polorb=0  (6d)  (non-perturbative polarization shell)
            splnorm:   0.15000    
               vcte:    40.000    
               rinn:  -0.90000    
               qcoe:    0.0000    
               qyuk:    0.0000    
               qwid:   0.10000E-01
                rcs:    0.0000    
            lambdas:    1.0000    
-------------------------------------------------------------------------------
L=0  Nkbl=1  erefs: 0.17977+309
L=1  Nkbl=1  erefs: 0.17977+309
L=2  Nkbl=2  erefs: 0.17977+309 0.17977+309
L=3  Nkbl=1  erefs: 0.17977+309
===============================================================================
</basis_specs>

Using PAO.SplitTailNorm
atom: Called for Pb                    (Z =  82)
Maximum radius (at nrval) set to   50.00000 8518

read_vps: Pseudopotential generation method:
read_vps: ONCVPSP-4.Hamann's oncvpsp                        
Valence charge in pseudo generation:   14.00000

read_vps: Pseudopotential includes a core correction:
read_vps: Pseudo-core for xc-correction

xc_check: Exchange-correlation functional:
xc_check: GGA Perdew, Burke & Ernzerhof 1996
Got Vlocal (oncv-fit) from psml data
Choosing vlocal chloc cutoff:  5.523551
qtot up to nchloc:   14.00002938
atom: Maximum radius for chlocal:    5.52355
atom: Maximum radius for r*vlocal+2*Zval:    5.52355
Reading KB projs from Pb psml data
Using scalar-relativistic projectors in PSML file

PSML: Kleinman-Bylander projectors: 
   l= 0   rc=  2.173283   Ekb= 23.260430
   l= 0   rc=  2.173283   Ekb=  7.418094
   l= 0   rc=  2.173283   Ekb=  1.682355
   l= 1   rc=  2.173283   Ekb=  1.682355
   l= 1   rc=  0.000010   Ekb=  0.000000
   l= 2   rc=  0.000010   Ekb=  0.000000
   l= 2   rc=  2.570104   Ekb= 11.442339
   l= 3   rc=  2.570104   Ekb=  1.471636

PSML: Total number of  Kleinman-Bylander projectors:  26
atom: -------------------------------------------------------------------------

atom: SANKEY-TYPE ORBITALS:
atom: Selected multiple-zeta basis: split     

SPLIT: Orbitals with angular momentum L= 0

SPLIT: Basis orbitals for state 6s

SPLIT: PAO cut-off radius determined from an
SPLIT: energy shift=  0.014700 Ry
Split based on tail norm

   izeta = 1
                 lambda =    1.000000
                     rc =    5.232664
                 energy =   -0.868014
                kinetic =    0.606640
    potential(screened) =   -1.474654
       potential(ionic) =  -12.820433

   izeta = 2
                 rmatch =    3.858357
              splitnorm =    0.150000
                 energy =   -0.343423
                kinetic =    1.510639
    potential(screened) =   -1.854063
       potential(ionic) =  -14.047791

SPLIT: Orbitals with angular momentum L= 1

SPLIT: Basis orbitals for state 6p

SPLIT: PAO cut-off radius determined from an
SPLIT: energy shift=  0.014700 Ry
Split based on tail norm

   izeta = 1
                 lambda =    1.000000
                     rc =    7.224273
                 energy =   -0.240136
                kinetic =    0.620839
    potential(screened) =   -0.860976
       potential(ionic) =   -9.818441

   izeta = 2
                 rmatch =    5.452081
              splitnorm =    0.150000
                 energy =   -0.126893
                kinetic =    0.971925
    potential(screened) =   -1.098817
       potential(ionic) =  -11.301210

SPLIT: Orbitals with angular momentum L= 2

SPLIT: Basis orbitals for state 5d

SPLIT: PAO cut-off radius determined from an
SPLIT: energy shift=  0.014700 Ry
Split based on tail norm

   izeta = 1
                 lambda =    1.000000
                     rc =    3.518348
                 energy =   -1.540219
                kinetic =    6.872240
    potential(screened) =   -8.412460
       potential(ionic) =  -23.422704

SPLIT: Basis orbitals for state 6d
SPLIT: Non-perturbative polarization orbs for state 6p
SPLIT: rc(1st zeta) (re)set to: 7.2243 (expansion factor: 1.0000)
Split based on tail norm

   izeta = 1
                 lambda =    1.000000
                     rc =    7.224273
                 energy =    0.314656
                kinetic =    1.079901
    potential(screened) =   -0.765245
       potential(ionic) =   -7.586043
atom: Total number of Sankey-type orbitals: 18

atm_pop: Valence configuration (for local Pseudopot. screening):
 6s( 2.00)                                                            
 6p( 2.00)                                                            
 5d(10.00) 6d( 0.00)                                                  
Vna: chval, zval:   14.00000  14.00000

Vna:  Cut-off radius for the neutral-atom potential:   7.224273
comcore: Pseudo-core radius Rcore=  3.390185

atom: _________________________________________________________________________

prinput: Basis input 

PAO.BasisType split     

%block ChemicalSpeciesLabel
    1   22 Ti                      # Species index, atomic number, species label
    2   40 Zr                      # Species index, atomic number, species label
    3   82 Pb                      # Species index, atomic number, species label
%endblock ChemicalSpeciesLabel

%block PAO.Basis                 # Define Basis set
# WARNING: This information might be incomplete!
Ti                    5                    # Species label, number of l-shells
 n=3   0   1                         # n, l, Nzeta 
   2.743   
   1.000   
 n=4   0   2                         # n, l, Nzeta 
   7.239      5.512   
   1.000      1.000   
 n=3   1   1                         # n, l, Nzeta 
   3.057   
   1.000   
 n=4   1   1                         # n, l, Nzeta 
   7.239   
   1.000   
 n=3   2   2                         # n, l, Nzeta 
   4.898      3.323   
   1.000      1.000   
Zr                    5                    # Species label, number of l-shells
 n=4   0   1                         # n, l, Nzeta 
   3.057   
   1.000   
 n=5   0   2                         # n, l, Nzeta 
   7.504      5.767   
   1.000      1.000   
 n=4   1   1                         # n, l, Nzeta 
   3.497   
   1.000   
 n=5   1   1                         # n, l, Nzeta 
   7.504   
   1.000   
 n=4   2   2                         # n, l, Nzeta 
   5.842      4.181   
   1.000      1.000   
Pb                    4                    # Species label, number of l-shells
 n=6   0   2                         # n, l, Nzeta 
   5.233      3.858   
   1.000      1.000   
 n=6   1   2                         # n, l, Nzeta 
   7.224      5.452   
   1.000      1.000   
 n=5   2   1                         # n, l, Nzeta 
   3.518   
   1.000   
 n=6   2   1                         # n, l, Nzeta 
   7.224   
   1.000   
%endblock PAO.Basis

prinput: ----------------------------------------------------------------------

Dumping basis to NetCDF file Ti.ion.nc
Dumping basis to NetCDF file Zr.ion.nc
Dumping basis to NetCDF file Pb.ion.nc
coor:   Atomic-coordinates input format  =     Cartesian coordinates
coor:                                          (in units of alat)

siesta: Atomic coordinates (Bohr) and species
siesta:      0.00000   0.00000   0.00000  1        1
siesta:      1.70784   1.70784   1.70784  2        2
siesta:      3.41568   3.41568   3.41568  3        3

siesta: System type = bulk      

initatomlists: Number of atoms, orbitals, and projectors:      3    56    62

coxmol: Writing XMOL coordinates into file relaxation.xyz                                                                                                                                                                                                                      

siesta: ******************** Simulation parameters ****************************
siesta:
siesta: The following are some of the parameters of the simulation.
siesta: A complete list of the parameters used, including default values,
siesta: can be found in file out.fdf
siesta:
redata: Spin configuration                          = none
redata: Number of spin components                   = 1
redata: Time-Reversal Symmetry                      = T
redata: Spin spiral                                 = F
redata: Long output                                 =   F
redata: Number of Atomic Species                    =        3
redata: Charge density info will appear in .RHO file
redata: Write Mulliken charges (when)               = geometry+end
redata: Write Mulliken Pop.                         = Atomic and Orbital charges
redata: Write Hirshfeld charges (when)              = none
redata: Write Voronoi charges (when)                = none
redata: Write spin charge (when)                    = none
redata: Matel table size (NRTAB)                    =     1024
redata: Mesh Cutoff                                 =   140.0000 Ry
redata: Net charge of the system                    =     0.0000 |e|
redata: Min. number of SCF Iter                     =        0
redata: Max. number of SCF Iter                     =       40
redata: SCF convergence failure will abort job
redata: SCF mix quantity                            = Hamiltonian
redata: Mix DM or H after convergence               =   F
redata: Recompute H after scf cycle                 =   F
redata: Mix DM in first SCF step                    =   T
redata: Write Pulay info on disk                    =   F
redata: New DM Occupancy tolerance                  = 0.000000000001
redata: No kicks to SCF
redata: DM Mixing Weight for Kicks                  =     0.5000
redata: Require Harris convergence for SCF          =   F
redata: Harris energy tolerance for SCF             =     0.000100 eV
redata: Require DM convergence for SCF              =   T
redata: DM tolerance for SCF                        =     0.000100
redata: Require EDM convergence for SCF             =   F
redata: EDM tolerance for SCF                       =     0.001000 eV
redata: Require H convergence for SCF               =   T
redata: Hamiltonian tolerance for SCF               =     0.001000 eV
redata: Require (free) Energy convergence for SCF   =   F
redata: (free) Energy tolerance for SCF             =     0.000100 eV
redata: Using DFT-D3 dispersion                     =   F
redata: Using Saved Data (generic)                  =   F
redata: Use continuation files for DM               =   T
redata: Neglect nonoverlap interactions             =   F
redata: Method of Calculation                       = Diagonalization
redata: Electronic Temperature                      =   290.1130 K
redata: Fix the spin of the system                  =   F
redata: Max. number of TDED Iter                    =        1
redata: Number of TDED substeps                     =        3
redata: Dynamics option                             = CG coord. optimization
redata: Variable cell                               =   T
redata: Use continuation files for CG               =   F
redata: Max atomic displ per move                   =     0.1058 Ang
redata: Maximum number of optimization moves        =      100
redata: Force tolerance                             =     0.0050 eV/Ang
redata: Stress tolerance                            =     0.0100 GPa
mix.SCF: Pulay mixing                            = Pulay
mix.SCF:    Variant                              = stable
mix.SCF:    History steps                        = 5
mix.SCF:    Linear mixing weight                 =     0.100000
mix.SCF:    Mixing weight                        =     0.100000
mix.SCF:    SVD condition                        = 0.1000E-07
redata: Save all siesta data in one NC              =   F
redata: ***********************************************************************

%block SCF.Mixers
  Pulay
%endblock SCF.Mixers

%block SCF.Mixer.Pulay
  # Mixing method
  method pulay
  variant stable

  # Mixing options
  weight 0.1000
  weight.linear 0.1000
  history 5
%endblock SCF.Mixer.Pulay

DM_history_depth set to one: no extrapolation allowed by default for geometry relaxation
Size of DM history Fstack: 1
Total number of electrons:    38.000000
Total ionic charge:    38.000000
 Kpoints in:           18 . Kpoints trimmed:           14

siesta: k-grid: Number of k-points = 14
siesta: k-points from Monkhorst-Pack grid
siesta: k-cutoff (effective) =     3.834 Ang
siesta: k-point supercell and displacements
siesta: k-grid:     3     0     0      0.000
siesta: k-grid:     0     3     0      0.000
siesta: k-grid:     0     0     3      0.000

diag: Algorithm                                     = D&C
diag: Used triangular part                          = Lower
diag: Absolute tolerance                            =  0.100E-15
diag: Orthogonalization factor                      =  0.100E-05
diag: Memory factor                                 =  1.0000

superc: Internal auxiliary supercell:     9 x     9 x     9  =     729
superc: Number of atoms, orbitals, and projectors:   2187  40824  45198


ts: **************************************************************
ts: Save H and S matrices                           =    F
ts: Save TSHS files in MD/FC simulation             =    F
ts: Save DM and EDM matrices                        =    F
ts: Only save the overlap matrix S                  =    F
ts: **************************************************************

************************ Begin: TS CHECKS AND WARNINGS ************************
************************ End: TS CHECKS AND WARNINGS **************************


                     ====================================
                        Begin CG opt. move =      0
                     ====================================

outcoor: Atomic coordinates (scaled):                       
    0.00000000    0.00000000    0.00000000   1       1  Ti
    0.25000000    0.25000000    0.25000000   2       2  Zr
    0.50000000    0.50000000    0.50000000   3       3  Pb

superc: Internal auxiliary supercell:     9 x     9 x     9  =     729
superc: Number of atoms, orbitals, and projectors:   2187  40824  45198

outcell: Unit cell vectors (Ang):
        0.000000    1.807500    1.807500
        1.807500    0.000000    1.807500
        1.807500    1.807500    0.000000

outcell: Cell vector modules (Ang)   :    2.556191    2.556191    2.556191
outcell: Cell angles (23,13,12) (deg):     60.0000     60.0000     60.0000
outcell: Cell volume (Ang**3)        :     11.8104
<dSpData1D:S at geom step 0
  <sparsity:sparsity for geom step 0
    nrows_g=56 nrows=56 sparsity=126.4471 nnzs=396538, refcount: 7>
  <dData1D:(new from dSpData1D) n=396538, refcount: 1>
refcount: 1>
new_DM -- step:     1
Initializing Density Matrix...

Attempting to read DM from file... Failed...
DM filled with atomic data:
<dSpData2D:DM initialized from atoms
  <sparsity:sparsity for geom step 0
    nrows_g=56 nrows=56 sparsity=126.4471 nnzs=396538, refcount: 8>
  <dData2D:DM n=396538 m=1, refcount: 1>
refcount: 1>
No. of atoms with KB's overlaping orbs in proc 0. Max # of overlaps:     176    1384

InitMesh: MESH = 16 x 16 x 16 = 4096
InitMesh: Mesh cutoff (required, used) =   140.000   162.423 Ry
New grid distribution [1]: sub = 2

stepf: Fermi-Dirac step function

siesta: Program's energy decomposition (eV):
siesta: Ebs     =     -1441.854858
siesta: Eions   =      6754.674477
siesta: Ena     =       727.254048
siesta: Ekin    =      2649.929474
siesta: Enl     =       158.997050
siesta: Eso     =         0.000000
siesta: Edftu   =         0.000000
siesta: DEna    =      -124.264784
siesta: DUscf   =       144.364943
siesta: DUext   =         0.000000
siesta: Ex      =     -1127.936614
siesta: Ec      =       -87.399315
siesta: Exc     =     -1215.335929
siesta: EbV     =         0.000000
siesta: eta*DQ  =         0.000000
siesta: Emadel  =         0.000000
siesta: Emeta   =         0.000000
siesta: Emolmec =         0.000000
siesta: Ekinion =         0.000000
siesta: Eharris =     -4876.548641
siesta: Etot    =     -4413.729675
siesta: FreeEng =     -4413.749276

        iscf     Eharris(eV)        E_KS(eV)     FreeEng(eV)     dDmax    Ef(eV) dHmax(eV)
   scf:    1    -4876.548641    -4413.729675    -4413.749276179.019029-13.739239 34.765964
timer: Routine,Calls,Time,% = IterSCF        1       1.023   7.39
   scf:    2    -4457.700107    -4436.610200    -4436.629801 16.516773-11.846102 26.126635
   scf:    3    -4484.263905    -4470.345437    -4470.352486 74.118450 -6.102343  6.003527
   scf:    4    -4473.628373    -4472.197015    -4472.203942 10.010178 -5.992939  3.290861
   scf:    5    -4472.703002    -4472.511975    -4472.518902 12.623148 -5.587405  0.786990
   scf:    6    -4472.602960    -4472.567401    -4472.574328  2.744668 -5.742017  0.459363
   scf:    7    -4472.572747    -4472.570133    -4472.577060  0.267690 -5.755262  0.386819
   scf:    8    -4472.580241    -4472.576877    -4472.583805  1.512132 -5.831213  0.010366
   scf:    9    -4472.576898    -4472.576890    -4472.583817  0.070023 -5.831953  0.001042
   scf:   10    -4472.576890    -4472.576890    -4472.583817  0.000684 -5.831944  0.000932
   scf:   11    -4472.576891    -4472.576891    -4472.583818  0.006008 -5.831797  0.000013
   scf:   12    -4472.576891    -4472.576891    -4472.583818  0.000028 -5.831799  0.000016

SCF Convergence by DM+H criterion
max |DM_out - DM_in|         :     0.0000279672
max |H_out - H_in|      (eV) :     0.0000157249
SCF cycle converged after 12 iterations

Using DM_out to compute the final energy and forces
No. of atoms with KB's overlaping orbs in proc 0. Max # of overlaps:     176    1384

siesta: E_KS(eV) =            -4472.5769

siesta: E_KS - E_eggbox =     -4472.5769

siesta: Atomic forces (eV/Ang):
----------------------------------------
   Tot    0.000478    0.000478    0.000478
----------------------------------------
   Max    0.010434
   Res    0.007926    sqrt( Sum f_i^2 / 3N )
----------------------------------------
   Max    0.010434    constrained

Stress tensor Voigt[x,y,z,yz,xz,xy] (kbar):   -74182.93   -74182.94   -74182.91       -2.37       -2.37       -2.37
(Free)E + p*V (eV/cell)    -3925.7461
Target enthalpy (eV/cell)    -4472.5838

siesta: Stress tensor (static) (eV/Ang**3):
       -46.301346   -0.001477   -0.001477
        -0.001477  -46.301349   -0.001477
        -0.001477   -0.001477  -46.301333

siesta: Pressure (static):      74182.92965885  kBar

siesta: Stress tensor (total) (eV/Ang**3):
       -46.301346   -0.001477   -0.001477
        -0.001477  -46.301349   -0.001477
        -0.001477   -0.001477  -46.301333

siesta: Pressure (total):      74182.92965885  kBar

mulliken: Atomic and Orbital Populations:

Species: Ti                  
Atom  Qatom  Qorb
               3s      4s      4s      3py     3pz     3px     4py     4pz     
               4px     3dxy    3dyz    3dz2    3dxz    3dx2-y2 3dxy    3dyz    
               3dz2    3dxz    3dx2-y2 
   1 16.125   1.845   0.047   0.298   1.935   1.935   1.935  -0.340  -0.340
             -0.340   0.157   0.157  -1.577   0.157  -1.577   1.403   1.403

              3.811   1.403   3.811

Species: Zr                  
Atom  Qatom  Qorb
               4s      5s      5s      4py     4pz     4px     5py     5pz     
               5px     4dxy    4dyz    4dz2    4dxz    4dx2-y2 4dxy    4dyz    
               4dz2    4dxz    4dx2-y2 
   2 16.960   1.455   1.105  -0.445   1.921   1.921   1.921   0.113   0.113
              0.113  -0.116  -0.116   0.540  -0.116   0.540   1.659   1.659

              1.517   1.659   1.517

Species: Pb                  
Atom  Qatom  Qorb
               6s      6s      6py     6pz     6px     6py     6pz     6px     
               5dxy    5dyz    5dz2    5dxz    5dx2-y2 6dxy    6dyz    6dz2    
               6dxz    6dx2-y2 
   3  4.915   0.970   0.830   0.311   0.311   0.311  -0.024  -0.024  -0.024
              0.395   0.395   0.370   0.395   0.370   0.053   0.053   0.085

              0.053   0.085

mulliken: Qtot =       38.000

Mulliken Atomic Populations:
Atom #   charge [q] valence [e]  Species
     1    -4.125490   16.125490  Ti
     2    -4.959687   16.959687  Zr
     3     9.085178    4.914822  Pb
--------------------
 Total    -0.000000

No target stress found, assuming hydrostatic MD.TargetPressure.

Target stress (kBar)
         -0.000       0.000       0.000
          0.000      -0.000       0.000
          0.000       0.000      -0.000

                     ====================================
                        Begin CG opt. move =      1
                     ====================================

outcoor: Atomic coordinates (scaled):                       
   -0.00000277   -0.00000277   -0.00000277   1       1  Ti
    0.25305506    0.25305506    0.25305505   2       2  Zr
    0.50611406    0.50611406    0.50611406   3       3  Pb
 Kpoints in:           18 . Kpoints trimmed:           14

siesta: k-grid: Number of k-points = 14
siesta: k-points from Monkhorst-Pack grid
siesta: k-cutoff (effective) =     3.881 Ang
siesta: k-point supercell and displacements
siesta: k-grid:     3     0     0      0.000
siesta: k-grid:     0     3     0      0.000
siesta: k-grid:     0     0     3      0.000

superc: Internal auxiliary supercell:     9 x     9 x     9  =     729
superc: Number of atoms, orbitals, and projectors:   2187  40824  45198

outcell: Unit cell vectors (Ang):
        0.000001    1.829590    1.829590
        1.829590    0.000001    1.829590
        1.829590    1.829590    0.000001

outcell: Cell vector modules (Ang)   :    2.587431    2.587431    2.587431
outcell: Cell angles (23,13,12) (deg):     59.9999     59.9999     59.9999
outcell: Cell volume (Ang**3)        :     12.2487
<dSpData1D:S at geom step 1
  <sparsity:sparsity for geom step 1
    nrows_g=56 nrows=56 sparsity=124.6562 nnzs=390922, refcount: 7>
  <dData1D:(new from dSpData1D) n=390922, refcount: 1>
refcount: 1>
new_DM -- step:     2
Re-using DM from previous geometries...
Number of DMs in history: 1
 DM extrapolation coefficients: 
1   1.00000
New DM after history re-use:
<dSpData2D:SpM extrapolated using coords
  <sparsity:sparsity for geom step 1
    nrows_g=56 nrows=56 sparsity=124.6562 nnzs=390922, refcount: 9>
  <dData2D:(temp array for extrapolation) n=390922 m=1, refcount: 1>
refcount: 1>
Note: For starting DM, Qtot, Tr[D*S] =         38.00000000         39.29191594
No. of atoms with KB's overlaping orbs in proc 0. Max # of overlaps:     176    1384

InitMesh: MESH = 16 x 16 x 16 = 4096
InitMesh: Mesh cutoff (required, used) =   140.000   158.524 Ry
New grid distribution [1]: sub = 2

        iscf     Eharris(eV)        E_KS(eV)     FreeEng(eV)     dDmax    Ef(eV) dHmax(eV)
   scf:    1    -4484.240675    -4491.388015    -4491.394943 29.563828 -6.023120  1.521102
   scf:    2    -4491.103610    -4491.434863    -4491.441790 10.859431 -5.118279  1.794205
   scf:    3    -4491.708507    -4491.614917    -4491.621844  5.205764 -5.541057  0.187452
   scf:    4    -4491.619323    -4491.617873    -4491.624801  0.261529 -5.538661  0.044275
   scf:    5    -4491.618008    -4491.617946    -4491.624873  0.175222 -5.539082  0.013049
   scf:    6    -4491.617988    -4491.617971    -4491.624898  0.083607 -5.543213  0.001050
   scf:    7    -4491.617972    -4491.617971    -4491.624899  0.004059 -5.543746  0.000061
   scf:    8    -4491.617971    -4491.617971    -4491.624899  0.000193 -5.543776  0.000017
   scf:    9    -4491.617971    -4491.617971    -4491.624899  0.000039 -5.543776  0.000019

SCF Convergence by DM+H criterion
max |DM_out - DM_in|         :     0.0000386224
max |H_out - H_in|      (eV) :     0.0000193433
SCF cycle converged after 9 iterations

Using DM_out to compute the final energy and forces
No. of atoms with KB's overlaping orbs in proc 0. Max # of overlaps:     176    1384

siesta: E_KS(eV) =            -4491.6180

siesta: Atomic forces (eV/Ang):
----------------------------------------
   Tot    0.001003    0.001004    0.000999
----------------------------------------
   Max    0.004567
   Res    0.003257    sqrt( Sum f_i^2 / 3N )
----------------------------------------
   Max    0.004567    constrained

Stress tensor Voigt[x,y,z,yz,xz,xy] (kbar):   -63536.16   -63536.16   -63536.14        0.09        0.09        0.09
(Free)E + p*V (eV/cell)    -4005.8878
Target enthalpy (eV/cell)    -4491.6249

siesta: Stress tensor (static) (eV/Ang**3):
       -39.656151    0.000058    0.000058
         0.000057  -39.656154    0.000059
         0.000059    0.000059  -39.656142

siesta: Pressure (static):      63536.15477711  kBar

siesta: Stress tensor (total) (eV/Ang**3):
       -39.656151    0.000058    0.000058
         0.000057  -39.656154    0.000059
         0.000059    0.000059  -39.656142

siesta: Pressure (total):      63536.15477711  kBar

mulliken: Atomic and Orbital Populations:

Species: Ti                  
Atom  Qatom  Qorb
               3s      4s      4s      3py     3pz     3px     4py     4pz     
               4px     3dxy    3dyz    3dz2    3dxz    3dx2-y2 3dxy    3dyz    
               3dz2    3dxz    3dx2-y2 
   1 16.298   1.886  -0.063   0.463   1.957   1.957   1.957  -0.322  -0.322
             -0.322   0.408   0.408  -0.952   0.408  -0.952   1.120   1.120

              3.214   1.120   3.214

Species: Zr                  
Atom  Qatom  Qorb
               4s      5s      5s      4py     4pz     4px     5py     5pz     
               5px     4dxy    4dyz    4dz2    4dxz    4dx2-y2 4dxy    4dyz    
               4dz2    4dxz    4dx2-y2 
   2 16.707   1.507   0.954  -0.267   1.891   1.891   1.891   0.106   0.106
              0.106  -0.109  -0.109   0.314  -0.109   0.314   1.610   1.610

              1.695   1.610   1.695

Species: Pb                  
Atom  Qatom  Qorb
               6s      6s      6py     6pz     6px     6py     6pz     6px     
               5dxy    5dyz    5dz2    5dxz    5dx2-y2 6dxy    6dyz    6dz2    
               6dxz    6dx2-y2 
   3  4.995   0.991   0.828   0.096   0.096   0.096   0.182   0.182   0.182
              0.415   0.415   0.434   0.415   0.434   0.034   0.034   0.064

              0.034   0.064

mulliken: Qtot =       38.000

Mulliken Atomic Populations:
Atom #   charge [q] valence [e]  Species
     1    -4.297594   16.297594  Ti
     2    -4.706968   16.706968  Zr
     3     9.004561    4.995439  Pb
--------------------
 Total    -0.000000

                     ====================================
                        Begin CG opt. move =      2
                     ====================================

outcoor: Atomic coordinates (scaled):                       
   -0.00000734   -0.00000734   -0.00000734   1       1  Ti
    0.25794313    0.25794313    0.25794312   2       2  Zr
    0.51589673    0.51589673    0.51589673   3       3  Pb
 Kpoints in:           18 . Kpoints trimmed:           14

siesta: k-grid: Number of k-points = 14
siesta: k-points from Monkhorst-Pack grid
siesta: k-cutoff (effective) =     3.956 Ang
siesta: k-point supercell and displacements
siesta: k-grid:     3     0     0      0.000
siesta: k-grid:     0     3     0      0.000
siesta: k-grid:     0     0     3      0.000

superc: Internal auxiliary supercell:     9 x     9 x     9  =     729
superc: Number of atoms, orbitals, and projectors:   2187  40824  45198

outcell: Unit cell vectors (Ang):
        0.000004    1.864934    1.864934
        1.864934    0.000004    1.864934
        1.864934    1.864934    0.000004

outcell: Cell vector modules (Ang)   :    2.637414    2.637414    2.637414
outcell: Cell angles (23,13,12) (deg):     59.9999     59.9999     59.9999
outcell: Cell volume (Ang**3)        :     12.9724
<dSpData1D:S at geom step 2
  <sparsity:sparsity for geom step 2
    nrows_g=56 nrows=56 sparsity=118.2277 nnzs=370762, refcount: 7>
  <dData1D:(new from dSpData1D) n=370762, refcount: 1>
refcount: 1>
new_DM -- step:     3
Re-using DM from previous geometries...
Number of DMs in history: 1
 DM extrapolation coefficients: 
1   1.00000
New DM after history re-use:
<dSpData2D:SpM extrapolated using coords
  <sparsity:sparsity for geom step 2
    nrows_g=56 nrows=56 sparsity=118.2277 nnzs=370762, refcount: 9>
  <dData2D:(temp array for extrapolation) n=370762 m=1, refcount: 1>
refcount: 1>
Note: For starting DM, Qtot, Tr[D*S] =         38.00000000         40.79973410
No. of atoms with KB's overlaping orbs in proc 0. Max # of overlaps:     167    1288

InitMesh: MESH = 16 x 16 x 16 = 4096
InitMesh: Mesh cutoff (required, used) =   140.000   152.572 Ry
New grid distribution [1]: sub = 2

        iscf     Eharris(eV)        E_KS(eV)     FreeEng(eV)     dDmax    Ef(eV) dHmax(eV)
   scf:    1    -4492.364291    -4515.602598    -4515.606134 45.155533 -7.091671  5.029630
   scf:    2    -4510.657953    -4515.025474    -4515.029010 26.012729 -5.059012  7.132871
   scf:    3    -4518.031439    -4517.097764    -4517.101300 14.487918 -6.038431  0.842511
   scf:    4    -4517.157131    -4517.139306    -4517.142842  0.922393 -5.977704  0.117302
   scf:    5    -4517.138586    -4517.139362    -4517.142899  0.398906 -5.950359  0.091625
   scf:    6    -4517.140288    -4517.139950    -4517.143486  0.278094 -5.953759  0.004694
   scf:    7    -4517.139948    -4517.139949    -4517.143485  0.003066 -5.953623  0.007131
   scf:    8    -4517.139953    -4517.139952    -4517.143488  0.015149 -5.954783  0.000034
   scf:    9    -4517.139952    -4517.139952    -4517.143488  0.000026 -5.954784  0.000031

SCF Convergence by DM+H criterion
max |DM_out - DM_in|         :     0.0000263476
max |H_out - H_in|      (eV) :     0.0000307496
SCF cycle converged after 9 iterations

Using DM_out to compute the final energy and forces
No. of atoms with KB's overlaping orbs in proc 0. Max # of overlaps:     167    1288

siesta: E_KS(eV) =            -4517.1400

siesta: Atomic forces (eV/Ang):
----------------------------------------
   Tot   -0.003450   -0.003449   -0.003448
----------------------------------------
   Max    0.019929
   Res    0.014206    sqrt( Sum f_i^2 / 3N )
----------------------------------------
   Max    0.019929    constrained

Stress tensor Voigt[x,y,z,yz,xz,xy] (kbar):   -51768.06   -51768.08   -51768.06        4.90        4.90        4.89
(Free)E + p*V (eV/cell)    -4097.9926
Target enthalpy (eV/cell)    -4517.1435

siesta: Stress tensor (static) (eV/Ang**3):
       -32.311085    0.003052    0.003059
         0.003052  -32.311095    0.003057
         0.003058    0.003057  -32.311079

siesta: Pressure (static):      51768.06731641  kBar

siesta: Stress tensor (total) (eV/Ang**3):
       -32.311085    0.003052    0.003059
         0.003052  -32.311095    0.003057
         0.003058    0.003057  -32.311079

siesta: Pressure (total):      51768.06731641  kBar

mulliken: Atomic and Orbital Populations:

Species: Ti                  
Atom  Qatom  Qorb
               3s      4s      4s      3py     3pz     3px     4py     4pz     
               4px     3dxy    3dyz    3dz2    3dxz    3dx2-y2 3dxy    3dyz    
               3dz2    3dxz    3dx2-y2 
   1 16.342   1.913  -0.398   0.821   1.968   1.968   1.968  -0.297  -0.297
             -0.297   0.889   0.889  -0.118   0.889  -0.118   0.618   0.618

              2.354   0.618   2.354

Species: Zr                  
Atom  Qatom  Qorb
               4s      5s      5s      4py     4pz     4px     5py     5pz     
               5px     4dxy    4dyz    4dz2    4dxz    4dx2-y2 4dxy    4dyz    
               4dz2    4dxz    4dx2-y2 
   2 16.505   1.592   0.778  -0.003   1.869   1.869   1.869   0.110   0.110
              0.110  -0.619  -0.619   0.231  -0.619   0.231   2.065   2.065

              1.701   2.065   1.701

Species: Pb                  
Atom  Qatom  Qorb
               6s      6s      6py     6pz     6px     6py     6pz     6px     
               5dxy    5dyz    5dz2    5dxz    5dx2-y2 6dxy    6dyz    6dz2    
               6dxz    6dx2-y2 
   3  5.153   1.016   0.842  -0.004  -0.004  -0.004   0.327   0.327   0.327
              0.400   0.400   0.467   0.400   0.467   0.028   0.028   0.054

              0.028   0.054

mulliken: Qtot =       38.000

Mulliken Atomic Populations:
Atom #   charge [q] valence [e]  Species
     1    -4.342238   16.342238  Ti
     2    -4.504711   16.504711  Zr
     3     8.846949    5.153051  Pb
--------------------
 Total     0.000000

                     ====================================
                        Begin CG opt. move =      3
                     ====================================

outcoor: Atomic coordinates (scaled):                       
   -0.00001248   -0.00001248   -0.00001248   1       1  Ti
    0.26323459    0.26323460    0.26323459   2       2  Zr
    0.52648700    0.52648701    0.52648700   3       3  Pb
 Kpoints in:           18 . Kpoints trimmed:           14

siesta: k-grid: Number of k-points = 14
siesta: k-points from Monkhorst-Pack grid
siesta: k-cutoff (effective) =     4.037 Ang
siesta: k-point supercell and displacements
siesta: k-grid:     3     0     0      0.000
siesta: k-grid:     0     3     0      0.000
siesta: k-grid:     0     0     3      0.000

superc: Internal auxiliary supercell:     9 x     9 x     9  =     729
superc: Number of atoms, orbitals, and projectors:   2187  40824  45198

outcell: Unit cell vectors (Ang):
        0.000006    1.903194    1.903194
        1.903194    0.000006    1.903194
        1.903194    1.903194    0.000006

outcell: Cell vector modules (Ang)   :    2.691523    2.691523    2.691523
outcell: Cell angles (23,13,12) (deg):     59.9998     59.9998     59.9998
outcell: Cell volume (Ang**3)        :     13.7872
<dSpData1D:S at geom step 3
  <sparsity:sparsity for geom step 3
    nrows_g=56 nrows=56 sparsity=114.0733 nnzs=357734, refcount: 7>
  <dData1D:(new from dSpData1D) n=357734, refcount: 1>
refcount: 1>
new_DM -- step:     4
Re-using DM from previous geometries...
Number of DMs in history: 1
 DM extrapolation coefficients: 
1   1.00000
New DM after history re-use:
<dSpData2D:SpM extrapolated using coords
  <sparsity:sparsity for geom step 3
    nrows_g=56 nrows=56 sparsity=114.0733 nnzs=357734, refcount: 9>
  <dData2D:(temp array for extrapolation) n=357734 m=1, refcount: 1>
refcount: 1>
Note: For starting DM, Qtot, Tr[D*S] =         38.00000000         41.03508116
No. of atoms with KB's overlaping orbs in proc 0. Max # of overlaps:     167    1288

InitMesh: MESH = 16 x 16 x 16 = 4096
InitMesh: Mesh cutoff (required, used) =   140.000   146.499 Ry
New grid distribution [1]: sub = 2

        iscf     Eharris(eV)        E_KS(eV)     FreeEng(eV)     dDmax    Ef(eV) dHmax(eV)
   scf:    1    -4513.179037    -4539.421334    -4539.431363 43.064628 -7.473918  5.973572
   scf:    2    -4530.479635    -4538.068109    -4538.075181 25.383865 -4.988419  9.334716
   scf:    3    -4543.134937    -4541.554880    -4541.562823 15.099827 -6.572926  1.105319
   scf:    4    -4541.344455    -4541.545066    -4541.548810  4.667274 -6.764398  1.557137
   scf:    5    -4541.627802    -4541.632826    -4541.641259  3.669386 -6.559876  0.288171
   scf:    6    -4541.636944    -4541.637652    -4541.644369  1.407835 -6.598037  0.097400
   scf:    7    -4541.637030    -4541.637779    -4541.645306  0.505225 -6.590972  0.031025
   scf:    8    -4541.637713    -4541.637746    -4541.645320  0.037834 -6.594587  0.021905
   scf:    9    -4541.638016    -4541.637892    -4541.645347  0.085118 -6.596238  0.001393
   scf:   10    -4541.637879    -4541.637885    -4541.645347  0.004627 -6.596141  0.000071
   scf:   11    -4541.637887    -4541.637886    -4541.645347  0.000606 -6.596127  0.000078
   scf:   12    -4541.637886    -4541.637886    -4541.645347  0.000176 -6.596130  0.000072
   scf:   13    -4541.637886    -4541.637886    -4541.645347  0.000083 -6.596120  0.000060

SCF Convergence by DM+H criterion
max |DM_out - DM_in|         :     0.0000825837
max |H_out - H_in|      (eV) :     0.0000598824
SCF cycle converged after 13 iterations

Using DM_out to compute the final energy and forces
No. of atoms with KB's overlaping orbs in proc 0. Max # of overlaps:     167    1288

siesta: E_KS(eV) =            -4541.6379

siesta: Atomic forces (eV/Ang):
----------------------------------------
   Tot   -0.000359   -0.000360   -0.000357
----------------------------------------
   Max    0.036536
   Res    0.027201    sqrt( Sum f_i^2 / 3N )
----------------------------------------
   Max    0.036536    constrained

Stress tensor Voigt[x,y,z,yz,xz,xy] (kbar):   -45041.43   -45041.44   -45041.42        4.55        4.55        4.55
(Free)E + p*V (eV/cell)    -4154.0496
Target enthalpy (eV/cell)    -4541.6453

siesta: Stress tensor (static) (eV/Ang**3):
       -28.112648    0.002839    0.002837
         0.002839  -28.112654    0.002839
         0.002838    0.002839  -28.112644

siesta: Pressure (static):      45041.42867416  kBar

siesta: Stress tensor (total) (eV/Ang**3):
       -28.112648    0.002839    0.002837
         0.002839  -28.112654    0.002839
         0.002838    0.002839  -28.112644

siesta: Pressure (total):      45041.42867416  kBar

mulliken: Atomic and Orbital Populations:

Species: Ti                  
Atom  Qatom  Qorb
               3s      4s      4s      3py     3pz     3px     4py     4pz     
               4px     3dxy    3dyz    3dz2    3dxz    3dx2-y2 3dxy    3dyz    
               3dz2    3dxz    3dx2-y2 
   1 15.908   1.915  -0.946   1.227   1.949   1.949   1.949  -0.299  -0.299
             -0.299   1.232   1.232   0.496   1.232   0.496   0.221   0.221

              1.704   0.221   1.704

Species: Zr                  
Atom  Qatom  Qorb
               4s      5s      5s      4py     4pz     4px     5py     5pz     
               5px     4dxy    4dyz    4dz2    4dxz    4dx2-y2 4dxy    4dyz    
               4dz2    4dxz    4dx2-y2 
   2 16.735   1.710   0.493   0.314   1.862   1.862   1.862   0.205   0.205
              0.205  -0.833  -0.833   0.311  -0.833   0.311   2.281   2.281

              1.526   2.281   1.526

Species: Pb                  
Atom  Qatom  Qorb
               6s      6s      6py     6pz     6px     6py     6pz     6px     
               5dxy    5dyz    5dz2    5dxz    5dx2-y2 6dxy    6dyz    6dz2    
               6dxz    6dx2-y2 
   3  5.357   0.988   0.872   0.073   0.073   0.073   0.281   0.281   0.281
              0.377   0.377   0.480   0.377   0.480   0.084   0.084   0.046

              0.084   0.046

mulliken: Qtot =       38.000

Mulliken Atomic Populations:
Atom #   charge [q] valence [e]  Species
     1    -3.907974   15.907974  Ti
     2    -4.734742   16.734742  Zr
     3     8.642717    5.357283  Pb
--------------------
 Total     0.000000

                     ====================================
                        Begin CG opt. move =      4
                     ====================================

outcoor: Atomic coordinates (scaled):                       
   -0.00001783   -0.00001783   -0.00001783   1       1  Ti
    0.26852604    0.26852604    0.26852603   2       2  Zr
    0.53707751    0.53707752    0.53707750   3       3  Pb
 Kpoints in:           18 . Kpoints trimmed:           14

siesta: k-grid: Number of k-points = 14
siesta: k-points from Monkhorst-Pack grid
siesta: k-cutoff (effective) =     4.118 Ang
siesta: k-point supercell and displacements
siesta: k-grid:     3     0     0      0.000
siesta: k-grid:     0     3     0      0.000
siesta: k-grid:     0     0     3      0.000

superc: Internal auxiliary supercell:     9 x     9 x     9  =     729
superc: Number of atoms, orbitals, and projectors:   2187  40824  45198

outcell: Unit cell vectors (Ang):
        0.000009    1.941455    1.941455
        1.941455    0.000009    1.941455
        1.941455    1.941455    0.000009

outcell: Cell vector modules (Ang)   :    2.745632    2.745632    2.745632
outcell: Cell angles (23,13,12) (deg):     59.9997     59.9997     59.9997
outcell: Cell volume (Ang**3)        :     14.6356
<dSpData1D:S at geom step 4
  <sparsity:sparsity for geom step 4
    nrows_g=56 nrows=56 sparsity=106.3820 nnzs=333614, refcount: 7>
  <dData1D:(new from dSpData1D) n=333614, refcount: 1>
refcount: 1>
new_DM -- step:     5
Re-using DM from previous geometries...
Number of DMs in history: 1
 DM extrapolation coefficients: 
1   1.00000
New DM after history re-use:
<dSpData2D:SpM extrapolated using coords
  <sparsity:sparsity for geom step 4
    nrows_g=56 nrows=56 sparsity=106.3820 nnzs=333614, refcount: 9>
  <dData2D:(temp array for extrapolation) n=333614 m=1, refcount: 1>
refcount: 1>
Note: For starting DM, Qtot, Tr[D*S] =         38.00000000         40.63745105
No. of atoms with KB's overlaping orbs in proc 0. Max # of overlaps:     152    1228

InitMesh: MESH = 16 x 16 x 16 = 4096
InitMesh: Mesh cutoff (required, used) =   140.000   140.782 Ry
New grid distribution [1]: sub = 2

        iscf     Eharris(eV)        E_KS(eV)     FreeEng(eV)     dDmax    Ef(eV) dHmax(eV)
   scf:    1    -4541.633261    -4561.758696    -4561.768859 51.674359 -6.784980  5.043934
   scf:    2    -4554.052001    -4560.413912    -4560.420984 19.580319 -4.606391  8.519135
   scf:    3    -4564.560391    -4563.284412    -4563.291486 11.504638 -5.918940  1.113782
   scf:    4    -4560.962379    -4562.557089    -4562.567100  1.974248 -6.229289  4.321867
   scf:    5    -4563.190803    -4563.313339    -4563.320421  3.439869 -5.833113  1.056457
   scf:    6    -4563.359083    -4563.358313    -4563.367179  0.580949 -6.021248  0.157992
   scf:    7    -4563.359062    -4563.360154    -4563.367829  0.118204 -5.983776  0.127840
   scf:    8    -4563.359548    -4563.360301    -4563.368529  0.075937 -6.007492  0.037915
   scf:    9    -4563.360586    -4563.360459    -4563.368598  0.012719 -6.004645  0.008548
   scf:   10    -4563.360530    -4563.360496    -4563.368602  0.003962 -6.003471  0.000079
   scf:   11    -4563.360496    -4563.360496    -4563.368602  0.000051 -6.003470  0.000072

SCF Convergence by DM+H criterion
max |DM_out - DM_in|         :     0.0000510060
max |H_out - H_in|      (eV) :     0.0000717619
SCF cycle converged after 11 iterations

Using DM_out to compute the final energy and forces
No. of atoms with KB's overlaping orbs in proc 0. Max # of overlaps:     152    1228

siesta: E_KS(eV) =            -4563.3605

siesta: Atomic forces (eV/Ang):
----------------------------------------
   Tot    0.009778    0.009779    0.009770
----------------------------------------
   Max    0.046135
   Res    0.036804    sqrt( Sum f_i^2 / 3N )
----------------------------------------
   Max    0.046135    constrained

Stress tensor Voigt[x,y,z,yz,xz,xy] (kbar):   -35637.81   -35637.82   -35637.81        3.32        3.32        3.32
(Free)E + p*V (eV/cell)    -4237.8245
Target enthalpy (eV/cell)    -4563.3686

siesta: Stress tensor (static) (eV/Ang**3):
       -22.243374    0.002070    0.002071
         0.002069  -22.243379    0.002071
         0.002071    0.002071  -22.243374

siesta: Pressure (static):      35637.81623007  kBar

siesta: Stress tensor (total) (eV/Ang**3):
       -22.243374    0.002070    0.002071
         0.002069  -22.243379    0.002071
         0.002071    0.002071  -22.243374

siesta: Pressure (total):      35637.81623007  kBar

mulliken: Atomic and Orbital Populations:

Species: Ti                  
Atom  Qatom  Qorb
               3s      4s      4s      3py     3pz     3px     4py     4pz     
               4px     3dxy    3dyz    3dz2    3dxz    3dx2-y2 3dxy    3dyz    
               3dz2    3dxz    3dx2-y2 
   1 15.293   1.870  -1.326   1.435   1.916   1.916   1.916  -0.312  -0.312
             -0.312   1.405   1.405   1.313   1.405   1.313  -0.035  -0.035

              0.882  -0.035   0.882

Species: Zr                  
Atom  Qatom  Qorb
               4s      5s      5s      4py     4pz     4px     5py     5pz     
               5px     4dxy    4dyz    4dz2    4dxz    4dx2-y2 4dxy    4dyz    
               4dz2    4dxz    4dx2-y2 
   2 17.273   1.804   0.373   0.515   1.832   1.832   1.832   0.364   0.364
              0.364  -0.600  -0.600   0.339  -0.600   0.339   2.112   2.112

              1.388   2.112   1.388

Species: Pb                  
Atom  Qatom  Qorb
               6s      6s      6py     6pz     6px     6py     6pz     6px     
               5dxy    5dyz    5dz2    5dxz    5dx2-y2 6dxy    6dyz    6dz2    
               6dxz    6dx2-y2 
   3  5.434   0.954   0.881   0.110   0.110   0.110   0.151   0.151   0.151
              0.363   0.363   0.470   0.363   0.470   0.222   0.222   0.060

              0.222   0.060

mulliken: Qtot =       38.000

Mulliken Atomic Populations:
Atom #   charge [q] valence [e]  Species
     1    -3.292603   15.292603  Ti
     2    -5.272978   17.272978  Zr
     3     8.565580    5.434420  Pb
--------------------
 Total    -0.000000

                     ====================================
                        Begin CG opt. move =      5
                     ====================================

outcoor: Atomic coordinates (scaled):                       
   -0.00002337   -0.00002337   -0.00002337   1       1  Ti
    0.27381745    0.27381746    0.27381745   2       2  Zr
    0.54766826    0.54766826    0.54766825   3       3  Pb
 Kpoints in:           18 . Kpoints trimmed:           14

siesta: k-grid: Number of k-points = 14
siesta: k-points from Monkhorst-Pack grid
siesta: k-cutoff (effective) =     4.200 Ang
siesta: k-point supercell and displacements
siesta: k-grid:     3     0     0      0.000
siesta: k-grid:     0     3     0      0.000
siesta: k-grid:     0     0     3      0.000

superc: Internal auxiliary supercell:     9 x     9 x     9  =     729
superc: Number of atoms, orbitals, and projectors:   2187  40824  45198

outcell: Unit cell vectors (Ang):
        0.000011    1.979716    1.979716
        1.979716    0.000011    1.979716
        1.979716    1.979716    0.000011

outcell: Cell vector modules (Ang)   :    2.799741    2.799741    2.799741
outcell: Cell angles (23,13,12) (deg):     59.9996     59.9996     59.9996
outcell: Cell volume (Ang**3)        :     15.5180
<dSpData1D:S at geom step 5
  <sparsity:sparsity for geom step 5
    nrows_g=56 nrows=56 sparsity=106.0376 nnzs=332534, refcount: 7>
  <dData1D:(new from dSpData1D) n=332534, refcount: 1>
refcount: 1>
new_DM -- step:     6
Re-using DM from previous geometries...
Number of DMs in history: 1
 DM extrapolation coefficients: 
1   1.00000
New DM after history re-use:
<dSpData2D:SpM extrapolated using coords
  <sparsity:sparsity for geom step 5
    nrows_g=56 nrows=56 sparsity=106.0376 nnzs=332534, refcount: 9>
  <dData2D:(temp array for extrapolation) n=332534 m=1, refcount: 1>
refcount: 1>
Note: For starting DM, Qtot, Tr[D*S] =         38.00000000         40.28134250
No. of atoms with KB's overlaping orbs in proc 0. Max # of overlaps:     146    1228

InitMesh: MESH = 18 x 18 x 18 = 5832
InitMesh: Mesh cutoff (required, used) =   140.000   171.356 Ry
New grid distribution [1]: sub = 2

        iscf     Eharris(eV)        E_KS(eV)     FreeEng(eV)     dDmax    Ef(eV) dHmax(eV)
   scf:    1    -4563.589078    -4578.357576    -4578.367590 78.860141 -5.689889  4.155155
   scf:    2    -4572.141374    -4577.153177    -4577.164614 13.809206 -4.046086  7.459479
   scf:    3    -4580.303914    -4579.424032    -4579.435068  8.342069 -5.099977  0.856019
   scf:    4    -4579.465791    -4579.461130    -4579.471202  0.262007 -5.079343  0.343231
   scf:    5    -4579.466846    -4579.465534    -4579.475666  0.276960 -5.047301  0.011979
   scf:    6    -4579.465610    -4579.465579    -4579.475709  0.040867 -5.046571  0.019963
   scf:    7    -4579.465639    -4579.465615    -4579.475734  0.017058 -5.046381  0.006270
   scf:    8    -4579.465618    -4579.465617    -4579.475736  0.012811 -5.047753  0.002085
   scf:    9    -4579.465616    -4579.465617    -4579.475736  0.000879 -5.047782  0.000108
   scf:   10    -4579.465617    -4579.465617    -4579.475736  0.000023 -5.047788  0.000100

SCF Convergence by DM+H criterion
max |DM_out - DM_in|         :     0.0000228509
max |H_out - H_in|      (eV) :     0.0001000080
SCF cycle converged after 10 iterations

Using DM_out to compute the final energy and forces
No. of atoms with KB's overlaping orbs in proc 0. Max # of overlaps:     146    1228

siesta: E_KS(eV) =            -4579.4656

siesta: Atomic forces (eV/Ang):
----------------------------------------
   Tot   -0.003114   -0.003114   -0.003118
----------------------------------------
   Max    0.073631
   Res    0.053382    sqrt( Sum f_i^2 / 3N )
----------------------------------------
   Max    0.073631    constrained

Stress tensor Voigt[x,y,z,yz,xz,xy] (kbar):   -24356.10   -24356.10   -24356.10        5.96        5.96        5.96
(Free)E + p*V (eV/cell)    -4343.5734
Target enthalpy (eV/cell)    -4579.4757

siesta: Stress tensor (static) (eV/Ang**3):
       -15.201882    0.003719    0.003719
         0.003719  -15.201882    0.003719
         0.003720    0.003720  -15.201882

siesta: Pressure (static):      24356.10026572  kBar

siesta: Stress tensor (total) (eV/Ang**3):
       -15.201882    0.003719    0.003719
         0.003719  -15.201882    0.003719
         0.003720    0.003720  -15.201882

siesta: Pressure (total):      24356.10026572  kBar

mulliken: Atomic and Orbital Populations:

Species: Ti                  
Atom  Qatom  Qorb
               3s      4s      4s      3py     3pz     3px     4py     4pz     
               4px     3dxy    3dyz    3dz2    3dxz    3dx2-y2 3dxy    3dyz    
               3dz2    3dxz    3dx2-y2 
   1 14.927   1.853  -1.648   1.538   1.896   1.896   1.896  -0.279  -0.279
             -0.279   1.535   1.535   1.847   1.535   1.847  -0.272  -0.272

              0.426  -0.272   0.426

Species: Zr                  
Atom  Qatom  Qorb
               4s      5s      5s      4py     4pz     4px     5py     5pz     
               5px     4dxy    4dyz    4dz2    4dxz    4dx2-y2 4dxy    4dyz    
               4dz2    4dxz    4dx2-y2 
   2 17.764   1.844   0.490   0.647   1.850   1.850   1.850   0.395   0.395
              0.395  -0.227  -0.227   0.308  -0.227   0.308   1.835   1.835

              1.302   1.835   1.302

Species: Pb                  
Atom  Qatom  Qorb
               6s      6s      6py     6pz     6px     6py     6pz     6px     
               5dxy    5dyz    5dz2    5dxz    5dx2-y2 6dxy    6dyz    6dz2    
               6dxz    6dx2-y2 
   3  5.309   0.792   0.931   0.306   0.306   0.306  -0.188  -0.188  -0.188
              0.349   0.349   0.460   0.349   0.460   0.342   0.342   0.118

              0.342   0.118

mulliken: Qtot =       38.000

Mulliken Atomic Populations:
Atom #   charge [q] valence [e]  Species
     1    -2.927342   14.927342  Ti
     2    -5.763541   17.763541  Zr
     3     8.690883    5.309117  Pb
--------------------
 Total     0.000000

                     ====================================
                        Begin CG opt. move =      6
                     ====================================

outcoor: Atomic coordinates (scaled):                       
   -0.00002911   -0.00002911   -0.00002911   1       1  Ti
    0.27910885    0.27910885    0.27910884   2       2  Zr
    0.55825924    0.55825925    0.55825923   3       3  Pb
 Kpoints in:           18 . Kpoints trimmed:           14

siesta: k-grid: Number of k-points = 14
siesta: k-points from Monkhorst-Pack grid
siesta: k-cutoff (effective) =     4.281 Ang
siesta: k-point supercell and displacements
siesta: k-grid:     3     0     0      0.000
siesta: k-grid:     0     3     0      0.000
siesta: k-grid:     0     0     3      0.000

superc: Internal auxiliary supercell:     9 x     9 x     9  =     729
superc: Number of atoms, orbitals, and projectors:   2187  40824  45198

outcell: Unit cell vectors (Ang):
        0.000013    2.017976    2.017976
        2.017976    0.000013    2.017976
        2.017976    2.017976    0.000013

outcell: Cell vector modules (Ang)   :    2.853850    2.853850    2.853850
outcell: Cell angles (23,13,12) (deg):     59.9996     59.9996     59.9996
outcell: Cell volume (Ang**3)        :     16.4352
<dSpData1D:S at geom step 6
  <sparsity:sparsity for geom step 6
    nrows_g=56 nrows=56 sparsity=106.0376 nnzs=332534, refcount: 7>
  <dData1D:(new from dSpData1D) n=332534, refcount: 1>
refcount: 1>
new_DM -- step:     7
Re-using DM from previous geometries...
Number of DMs in history: 1
 DM extrapolation coefficients: 
1   1.00000
New DM after history re-use:
<dSpData2D:SpM extrapolated using coords
  <sparsity:sparsity for geom step 6
    nrows_g=56 nrows=56 sparsity=106.0376 nnzs=332534, refcount: 9>
  <dData2D:(temp array for extrapolation) n=332534 m=1, refcount: 1>
refcount: 1>
Note: For starting DM, Qtot, Tr[D*S] =         38.00000000         40.01237424
No. of atoms with KB's overlaping orbs in proc 0. Max # of overlaps:     146    1228

InitMesh: MESH = 18 x 18 x 18 = 5832
InitMesh: Mesh cutoff (required, used) =   140.000   164.920 Ry
New grid distribution [1]: sub = 2

        iscf     Eharris(eV)        E_KS(eV)     FreeEng(eV)     dDmax    Ef(eV) dHmax(eV)
   scf:    1    -4579.917221    -4590.432831    -4590.442844 66.572123 -4.591745  2.670284
   scf:    2    -4588.407161    -4590.193345    -4590.203355  8.593494 -3.528549  3.749981
   scf:    3    -4591.390954    -4591.037829    -4591.047842  4.848961 -4.140118  0.427935
   scf:    4    -4591.054181    -4591.049608    -4591.059618  0.132893 -4.142180  0.079486
   scf:    5    -4591.050181    -4591.049968    -4591.059979  0.072516 -4.132783  0.075451
   scf:    6    -4591.050520    -4591.050265    -4591.060276  0.144382 -4.136509  0.003019
   scf:    7    -4591.050266    -4591.050266    -4591.060277  0.003141 -4.136143  0.001436
   scf:    8    -4591.050267    -4591.050267    -4591.060278  0.004721 -4.135860  0.000083
   scf:    9    -4591.050267    -4591.050267    -4591.060278  0.000021 -4.135861  0.000074

SCF Convergence by DM+H criterion
max |DM_out - DM_in|         :     0.0000207256
max |H_out - H_in|      (eV) :     0.0000736241
SCF cycle converged after 9 iterations

Using DM_out to compute the final energy and forces
No. of atoms with KB's overlaping orbs in proc 0. Max # of overlaps:     146    1228

siesta: E_KS(eV) =            -4591.0503

siesta: Atomic forces (eV/Ang):
----------------------------------------
   Tot    0.000714    0.000710    0.000715
----------------------------------------
   Max    0.078446
   Res    0.056577    sqrt( Sum f_i^2 / 3N )
----------------------------------------
   Max    0.078446    constrained

Stress tensor Voigt[x,y,z,yz,xz,xy] (kbar):   -16468.39   -16468.39   -16468.39        5.33        5.33        5.33
(Free)E + p*V (eV/cell)    -4422.1272
Target enthalpy (eV/cell)    -4591.0603

siesta: Stress tensor (static) (eV/Ang**3):
       -10.278760    0.003328    0.003326
         0.003327  -10.278761    0.003326
         0.003326    0.003325  -10.278760

siesta: Pressure (static):      16468.39021373  kBar

siesta: Stress tensor (total) (eV/Ang**3):
       -10.278760    0.003328    0.003326
         0.003327  -10.278761    0.003326
         0.003326    0.003325  -10.278760

siesta: Pressure (total):      16468.39021373  kBar

mulliken: Atomic and Orbital Populations:

Species: Ti                  
Atom  Qatom  Qorb
               3s      4s      4s      3py     3pz     3px     4py     4pz     
               4px     3dxy    3dyz    3dz2    3dxz    3dx2-y2 3dxy    3dyz    
               3dz2    3dxz    3dx2-y2 
   1 14.602   1.882  -1.991   1.672   1.914   1.914   1.914  -0.304  -0.304
             -0.304   1.651   1.651   2.258   1.651   2.258  -0.449  -0.449

              0.043  -0.449   0.043

Species: Zr                  
Atom  Qatom  Qorb
               4s      5s      5s      4py     4pz     4px     5py     5pz     
               5px     4dxy    4dyz    4dz2    4dxz    4dx2-y2 4dxy    4dyz    
               4dz2    4dxz    4dx2-y2 
   2 18.068   1.843   0.668   0.676   1.923   1.923   1.923   0.340   0.340
              0.340   0.076   0.076   0.175   0.076   0.175   1.629   1.629

              1.314   1.629   1.314

Species: Pb                  
Atom  Qatom  Qorb
               6s      6s      6py     6pz     6px     6py     6pz     6px     
               5dxy    5dyz    5dz2    5dxz    5dx2-y2 6dxy    6dyz    6dz2    
               6dxz    6dx2-y2 
   3  5.330   0.635   0.980   0.709   0.709   0.709  -0.724  -0.724  -0.724
              0.358   0.358   0.474   0.358   0.474   0.451   0.451   0.191

              0.451   0.191

mulliken: Qtot =       38.000

Mulliken Atomic Populations:
Atom #   charge [q] valence [e]  Species
     1    -2.601986   14.601986  Ti
     2    -6.068187   18.068187  Zr
     3     8.670173    5.329827  Pb
--------------------
 Total    -0.000000

                     ====================================
                        Begin CG opt. move =      7
                     ====================================

outcoor: Atomic coordinates (scaled):                       
   -0.00003506   -0.00003506   -0.00003506   1       1  Ti
    0.28440022    0.28440022    0.28440021   2       2  Zr
    0.56885046    0.56885047    0.56885044   3       3  Pb
 Kpoints in:           18 . Kpoints trimmed:           14

siesta: k-grid: Number of k-points = 14
siesta: k-points from Monkhorst-Pack grid
siesta: k-cutoff (effective) =     4.362 Ang
siesta: k-point supercell and displacements
siesta: k-grid:     3     0     0      0.000
siesta: k-grid:     0     3     0      0.000
siesta: k-grid:     0     0     3      0.000

superc: Internal auxiliary supercell:     9 x     9 x     9  =     729
superc: Number of atoms, orbitals, and projectors:   2187  40824  45198

outcell: Unit cell vectors (Ang):
        0.000016    2.056237    2.056237
        2.056237    0.000016    2.056237
        2.056237    2.056237    0.000016

outcell: Cell vector modules (Ang)   :    2.907958    2.907958    2.907958
outcell: Cell angles (23,13,12) (deg):     59.9995     59.9995     59.9995
outcell: Cell volume (Ang**3)        :     17.3878
<dSpData1D:S at geom step 7
  <sparsity:sparsity for geom step 7
    nrows_g=56 nrows=56 sparsity=92.8948 nnzs=291318, refcount: 7>
  <dData1D:(new from dSpData1D) n=291318, refcount: 1>
refcount: 1>
new_DM -- step:     8
Re-using DM from previous geometries...
Number of DMs in history: 1
 DM extrapolation coefficients: 
1   1.00000
New DM after history re-use:
<dSpData2D:SpM extrapolated using coords
  <sparsity:sparsity for geom step 7
    nrows_g=56 nrows=56 sparsity=92.8948 nnzs=291318, refcount: 9>
  <dData2D:(temp array for extrapolation) n=291318 m=1, refcount: 1>
refcount: 1>
Note: For starting DM, Qtot, Tr[D*S] =         38.00000000         39.84075552
No. of atoms with KB's overlaping orbs in proc 0. Max # of overlaps:     146    1092

InitMesh: MESH = 18 x 18 x 18 = 5832
InitMesh: Mesh cutoff (required, used) =   140.000   158.840 Ry
New grid distribution [1]: sub = 2

        iscf     Eharris(eV)        E_KS(eV)     FreeEng(eV)     dDmax    Ef(eV) dHmax(eV)
   scf:    1    -4592.937261    -4599.011358    -4599.021370 90.149357 -3.725852  2.884358
   scf:    2    -4597.547039    -4598.928445    -4598.938833  7.743130 -2.861042  2.802336
   scf:    3    -4599.902549    -4599.600848    -4599.610866  4.156338 -3.354631  0.370450
   scf:    4    -4599.608612    -4599.605344    -4599.615360  0.313642 -3.365981  0.210807
   scf:    5    -4599.606828    -4599.606421    -4599.616435  0.376138 -3.373100  0.100265
   scf:    6    -4599.607188    -4599.607028    -4599.617042  0.049617 -3.369966  0.009131
   scf:    7    -4599.607042    -4599.607036    -4599.617050  0.010961 -3.369178  0.000553
   scf:    8    -4599.607036    -4599.607036    -4599.617050  0.000280 -3.369170  0.000043
   scf:    9    -4599.607036    -4599.607036    -4599.617050  0.000026 -3.369169  0.000038

SCF Convergence by DM+H criterion
max |DM_out - DM_in|         :     0.0000262474
max |H_out - H_in|      (eV) :     0.0000377880
SCF cycle converged after 9 iterations

Using DM_out to compute the final energy and forces
No. of atoms with KB's overlaping orbs in proc 0. Max # of overlaps:     146    1092

siesta: E_KS(eV) =            -4599.6070

siesta: Atomic forces (eV/Ang):
----------------------------------------
   Tot    0.003317    0.003319    0.003320
----------------------------------------
   Max    0.082516
   Res    0.062710    sqrt( Sum f_i^2 / 3N )
----------------------------------------
   Max    0.082516    constrained

Stress tensor Voigt[x,y,z,yz,xz,xy] (kbar):   -12981.26   -12981.27   -12981.27        3.87        3.87        3.86
(Free)E + p*V (eV/cell)    -4458.7364
Target enthalpy (eV/cell)    -4599.6171

siesta: Stress tensor (static) (eV/Ang**3):
        -8.102267    0.002412    0.002413
         0.002411   -8.102271    0.002413
         0.002413    0.002413   -8.102269

siesta: Pressure (static):      12981.26635260  kBar

[...]
superc: Number of atoms, orbitals, and projectors:   2187  40824  45198

outcell: Unit cell vectors (Ang):
        0.000141    2.097221    2.097225
        2.097218    0.000141    2.097225
        2.097228    2.097231    0.000131

outcell: Cell vector modules (Ang)   :    2.965921    2.965919    2.965930
outcell: Cell angles (23,13,12) (deg):     59.9958     59.9957     59.9955
outcell: Cell volume (Ang**3)        :     18.4468
<dSpData1D:S at geom step 99
  <sparsity:sparsity for geom step 99
    nrows_g=56 nrows=56 sparsity=88.2066 nnzs=276616, refcount: 7>
  <dData1D:(new from dSpData1D) n=276616, refcount: 1>
refcount: 1>
new_DM -- step:   100
Re-using DM from previous geometries...
Number of DMs in history: 1
 DM extrapolation coefficients: 
1   1.00000
New DM after history re-use:
<dSpData2D:SpM extrapolated using coords
  <sparsity:sparsity for geom step 99
    nrows_g=56 nrows=56 sparsity=88.2066 nnzs=276616, refcount: 9>
  <dData2D:(temp array for extrapolation) n=276616 m=1, refcount: 1>
refcount: 1>
No. of atoms with KB's overlaping orbs in proc 0. Max # of overlaps:     147    1040

InitMesh: MESH = 18 x 18 x 18 = 5832
InitMesh: Mesh cutoff (required, used) =   140.000   152.683 Ry
New grid distribution [1]: sub = 2

        iscf     Eharris(eV)        E_KS(eV)     FreeEng(eV)     dDmax    Ef(eV) dHmax(eV)
   scf:    1    -4626.268877    -4626.268868    -4626.283012  0.001168 -2.544669  0.000036
   scf:    2    -4626.268868    -4626.268868    -4626.283012  0.000174 -2.544677  0.000044
   scf:    3    -4626.268868    -4626.268868    -4626.283012  0.000076 -2.544673  0.000011

SCF Convergence by DM+H criterion
max |DM_out - DM_in|         :     0.0000758313
max |H_out - H_in|      (eV) :     0.0000108251
SCF cycle converged after 3 iterations

Using DM_out to compute the final energy and forces
No. of atoms with KB's overlaping orbs in proc 0. Max # of overlaps:     147    1040

siesta: E_KS(eV) =            -4626.2689

siesta: Atomic forces (eV/Ang):
----------------------------------------
   Tot   -0.036816   -0.023714   -0.024924
----------------------------------------
   Max    0.032401
   Res    0.017083    sqrt( Sum f_i^2 / 3N )
----------------------------------------
   Max    0.032401    constrained

Stress tensor Voigt[x,y,z,yz,xz,xy] (kbar):        4.57        6.91        7.50        6.32        4.81        6.94
(Free)E + p*V (eV/cell)    -4626.3559
Target enthalpy (eV/cell)    -4626.2830

siesta: Stress tensor (static) (eV/Ang**3):
         0.002854    0.004334    0.003000
         0.004334    0.004315    0.003944
         0.003000    0.003943    0.004678

siesta: Pressure (static):         -6.32761329  kBar

siesta: Stress tensor (total) (eV/Ang**3):
         0.002854    0.004334    0.003000
         0.004334    0.004315    0.003944
         0.003000    0.003943    0.004678

siesta: Pressure (total):         -6.32761329  kBar

mulliken: Atomic and Orbital Populations:

Species: Ti                  
Atom  Qatom  Qorb
               3s      4s      4s      3py     3pz     3px     4py     4pz     
               4px     3dxy    3dyz    3dz2    3dxz    3dx2-y2 3dxy    3dyz    
               3dz2    3dxz    3dx2-y2 
   1 16.840   1.997  -1.251   1.501   1.835   1.835   1.835   0.123   0.123
              0.123   2.461   2.461   1.891   2.461   1.892  -0.475  -0.475

             -0.512  -0.475  -0.512

Species: Zr                  
Atom  Qatom  Qorb
               4s      5s      5s      4py     4pz     4px     5py     5pz     
               5px     4dxy    4dyz    4dz2    4dxz    4dx2-y2 4dxy    4dyz    
               4dz2    4dxz    4dx2-y2 
   2 15.419   1.657   0.138   0.681   1.792   1.792   1.792   0.275   0.275
              0.275  -0.258  -0.258  -0.210  -0.258  -0.210   1.483   1.483

              1.743   1.483   1.743

Species: Pb                  
Atom  Qatom  Qorb
               6s      6s      6py     6pz     6px     6py     6pz     6px     
               5dxy    5dyz    5dz2    5dxz    5dx2-y2 6dxy    6dyz    6dz2    
               6dxz    6dx2-y2 
   3  5.741  -0.332   1.208   0.933   0.933   0.933  -1.162  -1.162  -1.162
              0.434   0.434   0.458   0.434   0.458   0.452   0.452   0.988

              0.452   0.988

mulliken: Qtot =       38.000

Mulliken Atomic Populations:
Atom #   charge [q] valence [e]  Species
     1    -4.839669   16.839669  Ti
     2    -3.419347   15.419347  Zr
     3     8.259015    5.740985  Pb
--------------------
 Total    -0.000000

                     ====================================
                        Begin CG opt. move =    100
                     ====================================

outcoor: Atomic coordinates (scaled):                       
   -0.20948228   -0.20948357   -0.20947417   1       1  Ti
    0.37073411    0.37073360    0.37074834   2       2  Zr
    0.66078439    0.66078499    0.66078898   3       3  Pb
 Kpoints in:           18 . Kpoints trimmed:           14

siesta: k-grid: Number of k-points = 14
siesta: k-points from Monkhorst-Pack grid
siesta: k-cutoff (effective) =     4.449 Ang
siesta: k-point supercell and displacements
siesta: k-grid:     3     0     0      0.000
siesta: k-grid:     0     3     0      0.000
siesta: k-grid:     0     0     3      0.000

superc: Internal auxiliary supercell:     9 x     9 x     9  =     729
superc: Number of atoms, orbitals, and projectors:   2187  40824  45198

outcell: Unit cell vectors (Ang):
        0.000140    2.097220    2.097224
        2.097217    0.000140    2.097225
        2.097227    2.097230    0.000130

outcell: Cell vector modules (Ang)   :    2.965920    2.965918    2.965929
outcell: Cell angles (23,13,12) (deg):     59.9958     59.9957     59.9955
outcell: Cell volume (Ang**3)        :     18.4468
<dSpData1D:S at geom step 100
  <sparsity:sparsity for geom step 100
    nrows_g=56 nrows=56 sparsity=88.2066 nnzs=276616, refcount: 7>
  <dData1D:(new from dSpData1D) n=276616, refcount: 1>
refcount: 1>
new_DM -- step:   101
Re-using DM from previous geometries...
Number of DMs in history: 1
 DM extrapolation coefficients: 
1   1.00000
New DM after history re-use:
<dSpData2D:SpM extrapolated using coords
  <sparsity:sparsity for geom step 100
    nrows_g=56 nrows=56 sparsity=88.2066 nnzs=276616, refcount: 9>
  <dData2D:(temp array for extrapolation) n=276616 m=1, refcount: 1>
refcount: 1>
No. of atoms with KB's overlaping orbs in proc 0. Max # of overlaps:     147    1040

InitMesh: MESH = 18 x 18 x 18 = 5832
InitMesh: Mesh cutoff (required, used) =   140.000   152.683 Ry
New grid distribution [1]: sub = 2

        iscf     Eharris(eV)        E_KS(eV)     FreeEng(eV)     dDmax    Ef(eV) dHmax(eV)
   scf:    1    -4626.268882    -4626.268868    -4626.283013  0.001696 -2.544675  0.000057
   scf:    2    -4626.268868    -4626.268868    -4626.283013  0.000278 -2.544692  0.000100
   scf:    3    -4626.268868    -4626.268868    -4626.283013  0.000134 -2.544683  0.000020
   scf:    4    -4626.268868    -4626.268868    -4626.283013  0.000010 -2.544681  0.000003

SCF Convergence by DM+H criterion
max |DM_out - DM_in|         :     0.0000103024
max |H_out - H_in|      (eV) :     0.0000025140
SCF cycle converged after 4 iterations

Using DM_out to compute the final energy and forces
No. of atoms with KB's overlaping orbs in proc 0. Max # of overlaps:     147    1040

siesta: E_KS(eV) =            -4626.2689

siesta: Atomic forces (eV/Ang):
----------------------------------------
   Tot   -0.093396   -0.099044   -0.098269
----------------------------------------
   Max    0.092888
   Res    0.052653    sqrt( Sum f_i^2 / 3N )
----------------------------------------
   Max    0.092888    constrained

Stress tensor Voigt[x,y,z,yz,xz,xy] (kbar):       12.07       12.40       12.15       12.38       14.28       16.65
(Free)E + p*V (eV/cell)    -4626.4235
Target enthalpy (eV/cell)    -4626.2830

siesta: Stress tensor (static) (eV/Ang**3):
         0.007532    0.010389    0.008915
         0.010390    0.007739    0.007724
         0.008915    0.007724    0.007582

siesta: Pressure (static):        -12.20502690  kBar

siesta: Stress tensor (total) (eV/Ang**3):
         0.007532    0.010389    0.008915
         0.010390    0.007739    0.007724
         0.008915    0.007724    0.007582

siesta: Pressure (total):        -12.20502690  kBar

mulliken: Atomic and Orbital Populations:

Species: Ti                  
Atom  Qatom  Qorb
               3s      4s      4s      3py     3pz     3px     4py     4pz     
               4px     3dxy    3dyz    3dz2    3dxz    3dx2-y2 3dxy    3dyz    
               3dz2    3dxz    3dx2-y2 
   1 16.840   1.997  -1.251   1.501   1.835   1.835   1.835   0.123   0.123
              0.123   2.461   2.461   1.891   2.461   1.892  -0.475  -0.475

             -0.512  -0.475  -0.512

Species: Zr                  
Atom  Qatom  Qorb
               4s      5s      5s      4py     4pz     4px     5py     5pz     
               5px     4dxy    4dyz    4dz2    4dxz    4dx2-y2 4dxy    4dyz    
               4dz2    4dxz    4dx2-y2 
   2 15.419   1.657   0.138   0.681   1.792   1.792   1.792   0.275   0.275
              0.275  -0.258  -0.258  -0.210  -0.258  -0.210   1.483   1.483

              1.743   1.483   1.743

Species: Pb                  
Atom  Qatom  Qorb
               6s      6s      6py     6pz     6px     6py     6pz     6px     
               5dxy    5dyz    5dz2    5dxz    5dx2-y2 6dxy    6dyz    6dz2    
               6dxz    6dx2-y2 
   3  5.741  -0.332   1.208   0.933   0.933   0.933  -1.162  -1.162  -1.162
              0.434   0.434   0.458   0.434   0.458   0.452   0.452   0.988

              0.452   0.988

mulliken: Qtot =       38.000

Mulliken Atomic Populations:
Atom #   charge [q] valence [e]  Species
     1    -4.839670   16.839670  Ti
     2    -3.419355   15.419355  Zr
     3     8.259025    5.740975  Pb
--------------------
 Total     0.000000

outcoor: Final (unrelaxed) atomic coordinates (scaled):     
   -0.20948228   -0.20948357   -0.20947417   1       1  Ti
    0.37073411    0.37073360    0.37074834   2       2  Zr
    0.66078439    0.66078499    0.66078898   3       3  Pb

outcell: Unit cell vectors (Ang):
        0.000140    2.097220    2.097224
        2.097217    0.000140    2.097225
        2.097227    2.097230    0.000130

outcell: Cell vector modules (Ang)   :    2.965920    2.965918    2.965929
outcell: Cell angles (23,13,12) (deg):     59.9958     59.9957     59.9955
outcell: Cell volume (Ang**3)        :     18.4468

coxmol: Writing XMOL coordinates into file relaxation.xyz                                                                                                                                                                                                                      

siesta: Program's energy decomposition (eV):
siesta: Ebs     =     -1236.370386
siesta: Eions   =      6754.674477
siesta: Ena     =       837.298711
siesta: Ekin    =      2081.665718
siesta: Enl     =       217.681227
siesta: Eso     =         0.000000
siesta: Edftu   =         0.000000
siesta: DEna    =        62.929374
siesta: DUscf   =        49.859131
siesta: DUext   =         0.000000
siesta: Ex      =     -1038.437297
siesta: Ec      =       -82.591254
siesta: Exc     =     -1121.028551
siesta: EbV     =         0.000000
siesta: eta*DQ  =         0.000000
siesta: Emadel  =         0.000000
siesta: Emeta   =         0.000000
siesta: Emolmec =         0.000000
siesta: Ekinion =         0.000000
siesta: Eharris =     -4626.268868
siesta: Etot    =     -4626.268868
siesta: FreeEng =     -4626.283013

siesta: Final energy (eV):
siesta:  Band Struct. =   -1236.370386
siesta:       Kinetic =    2081.665718
siesta:       Hartree =     359.416544
siesta:         Edftu =       0.000000
siesta:       Eso     =       0.000000
siesta:    Ext. field =       0.000000
siesta:         Exch. =   -1038.437297
siesta:         Corr. =     -82.591254
siesta:     Bulk bias =       0.000000
siesta:   Exch.-corr. =   -1121.028551
siesta:  Ion-electron =   -3123.656070
siesta:       Ion-ion =   -2822.666509
siesta:       Ekinion =       0.000000
siesta: D3 dispersion =       0.000000
siesta:         Total =   -4626.268868
siesta:         Fermi =      -2.544681

siesta: Atomic forces (eV/Ang):
siesta:      1   -0.090024   -0.089575   -0.092888
siesta:      2    0.001461    0.001824    0.000781
siesta:      3   -0.004833   -0.011293   -0.006162
siesta: ----------------------------------------
siesta:    Tot   -0.093396   -0.099044   -0.098269

siesta: Stress tensor (static) (eV/Ang**3):
siesta:     0.007532    0.010389    0.008915
siesta:     0.010390    0.007739    0.007724
siesta:     0.008915    0.007724    0.007582

siesta: Constrained stress tensor (static) (eV/Ang**3):
siesta:     0.007532    0.010389    0.008915
siesta:     0.010389    0.007739    0.007724
siesta:     0.008915    0.007724    0.007582

siesta: Cell volume =         18.446836 Ang**3

siesta: Pressure (static):
siesta:                Solid            Molecule  Units
siesta:          -0.00008297         -0.00017085  Ry/Bohr**3
siesta:          -0.00761778         -0.01568639  eV/Ang**3
siesta:         -12.20502690        -25.13236665  kBar

Basis Enthalpy Calculation:
    Basis Pressure for species 1(Ti) :      0.2000000 GPa
    Basis Pressure for species 2(Zr) :      0.2000000 GPa
    Basis Pressure for species 3(Pb) :      0.2000000 GPa

    Orbital volume contribution        =           2.844271 eV
    (Free)E + p_basis*V_orbitals       =       -4623.438742 eV
    (Free)Eharris+ p_basis*V_orbitals  =       -4623.438742 eV
WARNING: BASIS_ENTHALPY and BASIS_HARRIS_ENTHALPY files are deprecated. They will be removed in future releases.
Please use system_label.BASIS_ENTHALPY in your scripts instead.

mulliken: Atomic and Orbital Populations:

Species: Ti                  
Atom  Qatom  Qorb
               3s      4s      4s      3py     3pz     3px     4py     4pz     
               4px     3dxy    3dyz    3dz2    3dxz    3dx2-y2 3dxy    3dyz    
               3dz2    3dxz    3dx2-y2 
   1 16.840   1.997  -1.251   1.501   1.835   1.835   1.835   0.123   0.123
              0.123   2.461   2.461   1.891   2.461   1.892  -0.475  -0.475

             -0.512  -0.475  -0.512

Species: Zr                  
Atom  Qatom  Qorb
               4s      5s      5s      4py     4pz     4px     5py     5pz     
               5px     4dxy    4dyz    4dz2    4dxz    4dx2-y2 4dxy    4dyz    
               4dz2    4dxz    4dx2-y2 
   2 15.419   1.657   0.138   0.681   1.792   1.792   1.792   0.275   0.275
              0.275  -0.258  -0.258  -0.210  -0.258  -0.210   1.483   1.483

              1.743   1.483   1.743

Species: Pb                  
Atom  Qatom  Qorb
               6s      6s      6py     6pz     6px     6py     6pz     6px     
               5dxy    5dyz    5dz2    5dxz    5dx2-y2 6dxy    6dyz    6dz2    
               6dxz    6dx2-y2 
   3  5.741  -0.332   1.208   0.933   0.933   0.933  -1.162  -1.162  -1.162
              0.434   0.434   0.458   0.434   0.458   0.452   0.452   0.988

              0.452   0.988

mulliken: Qtot =       38.000

Mulliken Atomic Populations:
Atom #   charge [q] valence [e]  Species
     1    -4.839670   16.839670  Ti
     2    -3.419355   15.419355  Zr
     3     8.259025    5.740975  Pb
--------------------
 Total     0.000000

siesta: Macroscopic polarization per unit cell (a.u.):
siesta: Along the lattice vectors       60.741146     60.749703     60.781388
siesta: Along cartesian directions      85.938232     85.932261     85.909789

siesta: Macroscopic polarization per unit cell (Debye):
siesta: Along the lattice vectors      154.388594    154.410344    154.490879
siesta: Along cartesian directions     218.433197    218.418020    218.360902

cite: Please indicate the Siesta version in published work: 5.4.2
cite: This calculation has made use of features in the following articles
cite: which we encourage you to cite in published work.
cite: (Please see "relaxation.bib" for a BibTeX file.)
        Primary SIESTA paper
          DOI: www.doi.org/10.1088/0953-8984/14/11/302
        PSML pseudopotential format
          DOI: www.doi.org/10.1016/j.cpc.2018.02.011


timer: Elapsed wall time (sec) =    1234.126
timer: CPU execution times (sec):

Routine            Calls   Time/call    Tot.time        %
siesta                 1    1233.559    1233.559   100.00
Setup                  1       0.242       0.242     0.02
bands                  1       0.000       0.000     0.00
KSV_init               1       0.000       0.000     0.00
IterGeom             101      11.831    1194.915    96.87
geom_init            101       1.752     176.980    14.35
state_init           101       0.365      36.835     2.99
hsparse              101       0.102      10.336     0.84
overlap              101       0.027       2.685     0.22
Setup_H0             101       0.959      96.825     7.85
naefs                202       0.000       0.052     0.00
dnaefs               101       0.000       0.019     0.00
two-body             101       0.000       0.000     0.00
MolMec               202       0.000       0.001     0.00
kinefsm              202       0.027       5.537     0.45
nlefsm               202       0.838     169.368    13.73
DHSCF_Init           101       0.248      25.040     2.03
DHSCF1               101       0.006       0.644     0.05
InitMesh             101       0.006       0.638     0.05
INITMESH             101       0.000       0.001     0.00
DHSCF2               101       0.241      24.385     1.98
REMESH               101       0.057       5.780     0.47
REORD               3861       0.000       0.026     0.00
PHION                101       0.163      16.511     1.34
COMM_BSC            4995       0.000       0.025     0.00
POISON              1274       0.000       0.155     0.01
fft                 2548       0.000       0.096     0.01
setup_H             1072       0.433     464.399    37.65
DHSCF               1173       0.669     785.216    63.65
DHSCF3              1173       0.432     506.724    41.08
rhoofd              1173       0.236     276.429    22.41
XC                  1173       0.003       3.459     0.28
GXC-CellXC          1173       0.003       3.449     0.28
gridxc@cellXC       1173       0.003       3.445     0.28
vmat                1173       0.193     226.607    18.37
IterSCF              971       0.607     589.470    47.79
compute_dm           971       0.168     162.763    13.19
diagon               971       0.167     162.129    13.14
c-eigval           13594       0.003      47.257     3.83
c-buildHS          13594       0.003      44.173     3.58
cdiag              27428       0.000      10.405     0.84
cdiag1             27428       0.000       0.620     0.05
cdiag2             27428       0.000       1.632     0.13
cdiag3             27428       0.000       7.536     0.61
c-eigvec           13594       0.004      51.052     4.14
cdiag4             13834       0.000       0.390     0.03
c-buildD           13594       0.005      63.448     5.14
MIXER                870       0.004       3.208     0.26
PostSCF              101       4.240     428.286    34.72
FINAL_HF             101       4.240     428.284    34.72
DHSCF4               101       2.757     278.490    22.58
dfscf                101       2.736     276.289    22.40
overfsm              101       0.028       2.803     0.23
writeHSX             101       0.002       0.237     0.02
state_analysis       101       0.001       0.083     0.01
siesta_move          101       0.000       0.028     0.00
Analysis               1      38.388      38.388     3.11
KSV_pol                1       2.657       2.657     0.22
phirphi                3       0.314       0.941     0.08
optical                1       0.000       0.000     0.00
  

>> End of run:   4-JUN-2026  10:27:47
Job completed
Job completed
