Executable      : siesta
Version         : 5.4.2
Architecture    : x86_64
Compiler version: GNU-14.3.0
Compiler flags  : -march=nocona -mtune=haswell -ftree-vectorize -fPIC -fstack-protector-strong -fno-plt -O2 -ffunction-sections -pipe -isystem <prefix>/include -I<prefix>/_build_env/include -fdebug-prefix-map=<prefix>/work=/usr/local/src/conda/siesta-5.4.2 -fdebug-prefix-map=<prefix>=/usr/local/src/conda-prefix -I<prefix>/lib -fallow-argument-mismatch -O3
Parallelisations: none
NetCDF support
NetCDF-4 support
Lua support
DFT-D3 support

Runtime information:
* Directory : /home/UAB/1673794/Documents/run_PG3
* Running in serial mode.
>> Start of run:   9-JUN-2026   9:51:11

                           *********************** 
                           *  WELCOME TO SIESTA  * 
                           *********************** 

 NOTE: Siesta V5 introduces some new defaults for basis-set generation
 NOTE: which might lead to slightly different numerical results.
 NOTE: Please see the manual for full details and compatibility measures.


reinit: Reading from file relaxation.fdf

reinit: -----------------------------------------------------------------------
reinit: System Name: 
reinit: -----------------------------------------------------------------------
reinit: System Label: relaxation
reinit: -----------------------------------------------------------------------

initatom: Reading input for the pseudopotentials and atomic orbitals ----------
Species number:   1 Atomic number:   56 Label: Ba
Species number:   2 Atomic number:   22 Label: Ti
Species number:   3 Atomic number:    8 Label: O

Ground state valence configuration (from tables):   6s02  6p00  5d00  4f00
Ground state valence configuration (from tables):   4s02  4p00  3d02  4f00
Ground state valence configuration (from tables):   2s02  2p04  3d00  4f00

---- Processing specs for species: Ba
Reading pseudopotential information in PSML from:
  Ba.psml
PSML file version: 1.1
Using libxc ids:  101 130
GGA--PBE XC_GGA_X_PBE--XC_GGA_C_PBE pb
PSML uuid: dc4dcbf0-c73a-11ed-4fa9-74e79cfeb140
Semicore shell(s) with  8 electrons included in the valence for Ba

---- Processing specs for species: Ti
Reading pseudopotential information in PSML from:
  Ti.psml
PSML file version: 1.1
Using libxc ids:  101 130
GGA--PBE XC_GGA_X_PBE--XC_GGA_C_PBE pb
PSML uuid: caed23e0-be41-11e7-4603-0bd897f88bea
Semicore shell(s) with  8 electrons included in the valence for Ti

---- Processing specs for species: O
Reading pseudopotential information in PSML from:
  O.psml
PSML file version: 1.1
Using libxc ids:  101 130
GGA--PBE XC_GGA_X_PBE--XC_GGA_C_PBE pb
PSML uuid: 3cff85a0-be41-11e7-6c5c-1b1fe64d18ef

---- Pseudopotential check for Ba

Pseudized shells:
5s( 2.00) rc: 1.96
5p( 6.00) rc: 1.80
5d( 0.00) rc: 1.90
4f( 0.00) rc: 2.11
Valence configuration for ps generation: 5s:5p:6s: Total charge:  10.000000
Semicore shell(s): 5s 5p
Fallback to non-perturbative polarization scheme for Ba
Please see the manual if this is not desired in principle

---- Pseudopotential check for Ti

Pseudized shells:
3s( 2.00) rc: 1.36
3p( 6.00) rc: 1.31
3d( 2.00) rc: 1.66
Valence configuration for ps generation: 3s:3p:3d:4s: Total charge:  12.000000
Semicore shell(s): 3s 3p
Fallback to non-perturbative polarization scheme for Ti
Please see the manual if this is not desired in principle

---- Pseudopotential check for O 

Pseudized shells:
2s( 2.00) rc: 1.36
2p( 4.00) rc: 1.46
3d( 0.00) rc: 1.26
Valence configuration for ps generation: 2s:2p: Total charge:   6.000000
For Ba, standard SIESTA heuristics set lmxkb to 2
 (one more than the basis l, including polarization orbitals).
Use PS.lmax or PS.KBprojectors blocks to override.
For Ti, standard SIESTA heuristics set lmxkb to 3
 (one more than the basis l, including polarization orbitals).
Use PS.lmax or PS.KBprojectors blocks to override.
For O, standard SIESTA heuristics set lmxkb to 3
 (one more than the basis l, including polarization orbitals).
Use PS.lmax or PS.KBprojectors blocks to override.
Ti pseudopotential only contains V_ls up to l=2 -- lmxkb reset.
O pseudopotential only contains V_ls up to l=2 -- lmxkb reset.

<basis_specs>
===============================================================================
Ba                   Z=  56    Mass=  137.33        Charge= 0.17977+309
Lmxo=1 Lmxkb= 2    BasisType=split      Semic=T
L=0  Nsemic=1  Cnfigmx=6
          i=1  nzeta=1  polorb=0  (5s)  (semicore shell)
            splnorm:   0.15000    
               vcte:    40.000    
               rinn:  -0.90000    
               qcoe:    0.0000    
               qyuk:    0.0000    
               qwid:   0.10000E-01
                rcs:    0.0000    
            lambdas:    1.0000    
          i=2  nzeta=2  polorb=0  (6s)  (to be polarized non-perturbatively)
            splnorm:   0.15000    
               vcte:    40.000    
               rinn:  -0.90000    
               qcoe:    0.0000    
               qyuk:    0.0000    
               qwid:   0.10000E-01
                rcs:    0.0000      0.0000    
            lambdas:    1.0000      1.0000    
L=1  Nsemic=1  Cnfigmx=6
          i=1  nzeta=1  polorb=0  (5p)  (semicore shell)
            splnorm:   0.15000    
               vcte:    40.000    
               rinn:  -0.90000    
               qcoe:    0.0000    
               qyuk:    0.0000    
               qwid:   0.10000E-01
                rcs:    0.0000    
            lambdas:    1.0000    
          i=2  nzeta=1  polorb=0  (6p)  (non-perturbative polarization shell)
            splnorm:   0.15000    
               vcte:    40.000    
               rinn:  -0.90000    
               qcoe:    0.0000    
               qyuk:    0.0000    
               qwid:   0.10000E-01
                rcs:    0.0000    
            lambdas:    1.0000    
-------------------------------------------------------------------------------
L=0  Nkbl=2  erefs: 0.17977+309 0.17977+309
L=1  Nkbl=2  erefs: 0.17977+309 0.17977+309
L=2  Nkbl=1  erefs: 0.17977+309
===============================================================================
</basis_specs>

Using PAO.SplitTailNorm
atom: Called for Ba                    (Z =  56)
Maximum radius (at nrval) set to   50.00000 8518

read_vps: Pseudopotential generation method:
read_vps: ONCVPSP-4.Hamann's oncvpsp                        
Valence charge in pseudo generation:   10.00000

read_vps: Pseudopotential includes a core correction:
read_vps: Pseudo-core for xc-correction

xc_check: Exchange-correlation functional:
xc_check: GGA Perdew, Burke & Ernzerhof 1996
Got Vlocal (oncv-fit) from psml data
Choosing vlocal chloc cutoff:  4.771861
qtot up to nchloc:    9.99576283
atom: Maximum radius for chlocal:    4.77186
atom: Maximum radius for r*vlocal+2*Zval:    4.77186
Reading KB projs from Ba psml data
Using scalar-relativistic projectors in PSML file

PSML: Kleinman-Bylander projectors: 
   l= 0   rc=  1.973434   Ekb= 13.024145
   l= 0   rc=  1.973434   Ekb=  1.256320
   l= 1   rc=  0.000010   Ekb=  0.000000
   l= 1   rc=  0.000010   Ekb=  0.000000
   l= 2   rc=  0.000010   Ekb=  0.000000
   l= 2   rc=  1.813631   Ekb= 10.658512

PSML: Total number of  Kleinman-Bylander projectors:  18
atom: -------------------------------------------------------------------------

atom: SANKEY-TYPE ORBITALS:
atom: Selected multiple-zeta basis: split     

SPLIT: Orbitals with angular momentum L= 0

SPLIT: Basis orbitals for state 5s

SPLIT: PAO cut-off radius determined from an
SPLIT: energy shift=  0.022050 Ry
Split based on tail norm

   izeta = 1
                 lambda =    1.000000
                     rc =    3.684443
                 energy =   -2.450067
                kinetic =    1.222084
    potential(screened) =   -3.672152
       potential(ionic) =  -11.606558

SPLIT: Basis orbitals for state 6s

SPLIT: PAO cut-off radius determined from an
SPLIT: energy shift=  0.022050 Ry
Split based on tail norm

   izeta = 1
                 lambda =    1.000000
                     rc =    8.445607
                 energy =   -0.217073
                kinetic =    0.529942
    potential(screened) =   -0.747014
       potential(ionic) =   -5.312926

   izeta = 2
                 rmatch =    6.741940
              splitnorm =    0.150000
                 energy =    0.166466
                kinetic =    0.928334
    potential(screened) =   -0.761868
       potential(ionic) =   -6.241291

SPLIT: Orbitals with angular momentum L= 1

SPLIT: Basis orbitals for state 5p

SPLIT: PAO cut-off radius determined from an
SPLIT: energy shift=  0.022050 Ry
Split based on tail norm

   izeta = 1
                 lambda =    1.000000
                     rc =    4.299534
                 energy =   -1.352293
                kinetic =    1.733956
    potential(screened) =   -3.086250
       potential(ionic) =  -10.630106

SPLIT: Basis orbitals for state 6p
SPLIT: Non-perturbative polarization orbs for state 6s
SPLIT: rc(1st zeta) (re)set to: 8.4456 (expansion factor: 1.0000)
Split based on tail norm

   izeta = 1
                 lambda =    1.000000
                     rc =    8.445607
                 energy =   -0.009499
                kinetic =    0.621726
    potential(screened) =   -0.631226
       potential(ionic) =   -4.747517
atom: Total number of Sankey-type orbitals:  9

atm_pop: Valence configuration (for local Pseudopot. screening):
 5s( 2.00) 6s( 2.00)                                                  
 5p( 6.00) 6p( 0.00)                                                  
Vna: chval, zval:   10.00000  10.00000

Vna:  Cut-off radius for the neutral-atom potential:   8.445607
comcore: Pseudo-core radius Rcore=  3.528949

atom: _________________________________________________________________________

<basis_specs>
===============================================================================
Ti                   Z=  22    Mass=  47.867        Charge= 0.17977+309
Lmxo=2 Lmxkb= 2    BasisType=split      Semic=T
L=0  Nsemic=1  Cnfigmx=4
          i=1  nzeta=1  polorb=0  (3s)  (semicore shell)
            splnorm:   0.15000    
               vcte:    40.000    
               rinn:  -0.90000    
               qcoe:    0.0000    
               qyuk:    0.0000    
               qwid:   0.10000E-01
                rcs:    0.0000    
            lambdas:    1.0000    
          i=2  nzeta=2  polorb=0  (4s)  (to be polarized non-perturbatively)
            splnorm:   0.15000    
               vcte:    40.000    
               rinn:  -0.90000    
               qcoe:    0.0000    
               qyuk:    0.0000    
               qwid:   0.10000E-01
                rcs:    0.0000      0.0000    
            lambdas:    1.0000      1.0000    
L=1  Nsemic=1  Cnfigmx=4
          i=1  nzeta=1  polorb=0  (3p)  (semicore shell)
            splnorm:   0.15000    
               vcte:    40.000    
               rinn:  -0.90000    
               qcoe:    0.0000    
               qyuk:    0.0000    
               qwid:   0.10000E-01
                rcs:    0.0000    
            lambdas:    1.0000    
          i=2  nzeta=1  polorb=0  (4p)  (non-perturbative polarization shell)
            splnorm:   0.15000    
               vcte:    40.000    
               rinn:  -0.90000    
               qcoe:    0.0000    
               qyuk:    0.0000    
               qwid:   0.10000E-01
                rcs:    0.0000    
            lambdas:    1.0000    
L=2  Nsemic=0  Cnfigmx=3
          i=1  nzeta=2  polorb=0  (3d)
            splnorm:   0.15000    
               vcte:    40.000    
               rinn:  -0.90000    
               qcoe:    0.0000    
               qyuk:    0.0000    
               qwid:   0.10000E-01
                rcs:    0.0000      0.0000    
            lambdas:    1.0000      1.0000    
-------------------------------------------------------------------------------
L=0  Nkbl=2  erefs: 0.17977+309 0.17977+309
L=1  Nkbl=2  erefs: 0.17977+309 0.17977+309
L=2  Nkbl=1  erefs: 0.17977+309
===============================================================================
</basis_specs>

Using PAO.SplitTailNorm
atom: Called for Ti                    (Z =  22)
Maximum radius (at nrval) set to   50.00000 8518

read_vps: Pseudopotential generation method:
read_vps: ONCVPSP-3.Hamann's oncvpsp                        
Valence charge in pseudo generation:   12.00000

read_vps: Pseudopotential includes a core correction:
read_vps: Pseudo-core for xc-correction

xc_check: Exchange-correlation functional:
xc_check: GGA Perdew, Burke & Ernzerhof 1996
Got Vlocal (oncv-fit) from psml data
Choosing vlocal chloc cutoff:  3.029916
qtot up to nchloc:   12.00014688
atom: Maximum radius for chlocal:    3.02992
atom: Maximum radius for r*vlocal+2*Zval:    3.02992
Reading KB projs from Ti psml data
Using scalar-relativistic projectors in PSML file

PSML: Kleinman-Bylander projectors: 
   l= 0   rc=  1.375180   Ekb= 22.724697
   l= 0   rc=  1.375180   Ekb=  2.527278
   l= 1   rc=  1.326200   Ekb=  3.950805
   l= 1   rc=  1.327537   Ekb= -0.169333
   l= 2   rc=  1.683555   Ekb=-10.372181
   l= 2   rc=  1.683555   Ekb= -2.954901

PSML: Total number of  Kleinman-Bylander projectors:  18
atom: -------------------------------------------------------------------------

atom: SANKEY-TYPE ORBITALS:
atom: Selected multiple-zeta basis: split     

SPLIT: Orbitals with angular momentum L= 0

SPLIT: Basis orbitals for state 3s

SPLIT: PAO cut-off radius determined from an
SPLIT: energy shift=  0.022050 Ry
Split based on tail norm

   izeta = 1
                 lambda =    1.000000
                     rc =    2.635420
                 energy =   -4.579527
                kinetic =    2.326942
    potential(screened) =   -6.906469
       potential(ionic) =  -23.072621

SPLIT: Basis orbitals for state 4s

SPLIT: PAO cut-off radius determined from an
SPLIT: energy shift=  0.022050 Ry
Split based on tail norm

   izeta = 1
                 lambda =    1.000000
                     rc =    6.843982
                 energy =   -0.314441
                kinetic =    0.796941
    potential(screened) =   -1.111382
       potential(ionic) =   -8.916637

   izeta = 2
                 rmatch =    5.301264
              splitnorm =    0.150000
                 energy =   -0.140155
                kinetic =    1.418596
    potential(screened) =   -1.558752
       potential(ionic) =  -10.896893

SPLIT: Orbitals with angular momentum L= 1

SPLIT: Basis orbitals for state 3p

SPLIT: PAO cut-off radius determined from an
SPLIT: energy shift=  0.022050 Ry
Split based on tail norm

   izeta = 1
                 lambda =    1.000000
                     rc =    2.931236
                 energy =   -2.832213
                kinetic =    5.021608
    potential(screened) =   -7.853821
       potential(ionic) =  -23.570229

SPLIT: Basis orbitals for state 4p
SPLIT: Non-perturbative polarization orbs for state 4s
SPLIT: rc(1st zeta) (re)set to: 6.8440 (expansion factor: 1.0000)
Split based on tail norm

   izeta = 1
                 lambda =    1.000000
                     rc =    6.843982
                 energy =   -0.022664
                kinetic =    0.981182
    potential(screened) =   -1.003846
       potential(ionic) =   -7.925992

SPLIT: Orbitals with angular momentum L= 2

SPLIT: Basis orbitals for state 3d

SPLIT: PAO cut-off radius determined from an
SPLIT: energy shift=  0.022050 Ry
Split based on tail norm

   izeta = 1
                 lambda =    1.000000
                     rc =    4.556878
                 energy =   -0.289178
                kinetic =    6.761259
    potential(screened) =   -7.050436
       potential(ionic) =  -20.805830

   izeta = 2
                 rmatch =    3.163483
              splitnorm =    0.150000
                 energy =   -0.141333
                kinetic =    8.704185
    potential(screened) =   -8.845518
       potential(ionic) =  -23.898466
atom: Total number of Sankey-type orbitals: 19

atm_pop: Valence configuration (for local Pseudopot. screening):
 3s( 2.00) 4s( 2.00)                                                  
 3p( 6.00) 4p( 0.00)                                                  
 3d( 2.00)                                                            
Vna: chval, zval:   12.00000  12.00000

Vna:  Cut-off radius for the neutral-atom potential:   6.843982
comcore: Pseudo-core radius Rcore=  1.766828

atom: _________________________________________________________________________

<basis_specs>
===============================================================================
O                    Z=   8    Mass=  15.999        Charge= 0.17977+309
Lmxo=2 Lmxkb= 2    BasisType=split      Semic=F
L=0  Nsemic=0  Cnfigmx=2
          i=1  nzeta=2  polorb=0  (2s)
            splnorm:   0.15000    
               vcte:    40.000    
               rinn:  -0.90000    
               qcoe:    0.0000    
               qyuk:    0.0000    
               qwid:   0.10000E-01
                rcs:    0.0000      0.0000    
            lambdas:    1.0000      1.0000    
L=1  Nsemic=0  Cnfigmx=2
          i=1  nzeta=2  polorb=1  (2p)  (to be polarized perturbatively)
            splnorm:   0.15000    
               vcte:    40.000    
               rinn:  -0.90000    
               qcoe:    0.0000    
               qyuk:    0.0000    
               qwid:   0.10000E-01
                rcs:    0.0000      0.0000    
            lambdas:    1.0000      1.0000    
L=2  Nsemic=0  Cnfigmx=3
          i=1  nzeta=0  polorb=0  (3d)  (perturbative polarization orbital) (from 2p)
-------------------------------------------------------------------------------
L=0  Nkbl=1  erefs: 0.17977+309
L=1  Nkbl=1  erefs: 0.17977+309
L=2  Nkbl=1  erefs: 0.17977+309
===============================================================================
</basis_specs>

Using PAO.SplitTailNorm
atom: Called for O                     (Z =   8)
Maximum radius (at nrval) set to   50.00000 8518

read_vps: Pseudopotential generation method:
read_vps: ONCVPSP-3.Hamann's oncvpsp                        
Valence charge in pseudo generation:    6.00000

read_vps: Pseudopotential includes a core correction:
read_vps: Pseudo-core for xc-correction

xc_check: Exchange-correlation functional:
xc_check: GGA Perdew, Burke & Ernzerhof 1996
Got Vlocal (oncv-fit) from psml data
Choosing vlocal chloc cutoff:  6.020499
qtot up to nchloc:    6.00001015
atom: Maximum radius for chlocal:    6.02050
atom: Maximum radius for r*vlocal+2*Zval:    6.02050
Reading KB projs from O psml data
Using scalar-relativistic projectors in PSML file

PSML: Kleinman-Bylander projectors: 
   l= 0   rc=  1.372412   Ekb= 12.113471
   l= 0   rc=  1.372412   Ekb=  1.648048
   l= 1   rc=  1.474132   Ekb= -9.434259
   l= 1   rc=  1.474132   Ekb= -2.298541
   l= 2   rc=  1.277664   Ekb= -2.663910

PSML: Total number of  Kleinman-Bylander projectors:  13
atom: -------------------------------------------------------------------------

atom: SANKEY-TYPE ORBITALS:
atom: Selected multiple-zeta basis: split     

SPLIT: Orbitals with angular momentum L= 0

SPLIT: Basis orbitals for state 2s

SPLIT: PAO cut-off radius determined from an
SPLIT: energy shift=  0.022050 Ry
Split based on tail norm

   izeta = 1
                 lambda =    1.000000
                     rc =    3.214667
                 energy =   -1.737143
                kinetic =    1.647372
    potential(screened) =   -3.384514
       potential(ionic) =  -11.335845

   izeta = 2
                 rmatch =    2.206279
              splitnorm =    0.150000
                 energy =   -1.248930
                kinetic =    2.868486
    potential(screened) =   -4.117415
       potential(ionic) =  -12.788572

SPLIT: Orbitals with angular momentum L= 1

SPLIT: Basis orbitals for state 2p

SPLIT: PAO cut-off radius determined from an
SPLIT: energy shift=  0.022050 Ry
Split based on tail norm

   izeta = 1
                 lambda =    1.000000
                     rc =    3.819866
                 energy =   -0.639970
                kinetic =    4.771237
    potential(screened) =   -5.411207
       potential(ionic) =  -13.142963

   izeta = 2
                 rmatch =    2.601252
              splitnorm =    0.150000
                 energy =   -0.382093
                kinetic =    6.846164
    potential(screened) =   -7.228258
       potential(ionic) =  -15.727266

POLgen: Perturbative polarization orbital with L=  2

POLgen: Polarization orbital for state 2p
Split based on tail norm

   izeta = 1
                     rc =    3.819866
                 energy =    2.500658
                kinetic =    4.605602
    potential(screened) =   -2.104944
       potential(ionic) =   -8.455031
atom: Total number of Sankey-type orbitals: 13

atm_pop: Valence configuration (for local Pseudopot. screening):
 2s( 2.00)                                                            
 2p( 4.00)                                                            
 3d( 0.00)                                                            
Vna: chval, zval:    6.00000   6.00000

Vna:  Cut-off radius for the neutral-atom potential:   3.819866
comcore: Pseudo-core radius Rcore=  1.354557

atom: _________________________________________________________________________

prinput: Basis input 

PAO.BasisType split     

%block ChemicalSpeciesLabel
    1   56 Ba                      # Species index, atomic number, species label
    2   22 Ti                      # Species index, atomic number, species label
    3    8 O                       # Species index, atomic number, species label
%endblock ChemicalSpeciesLabel

%block PAO.Basis                 # Define Basis set
# WARNING: This information might be incomplete!
Ba                    4                    # Species label, number of l-shells
 n=5   0   1                         # n, l, Nzeta 
   3.684   
   1.000   
 n=6   0   2                         # n, l, Nzeta 
   8.446      6.742   
   1.000      1.000   
 n=5   1   1                         # n, l, Nzeta 
   4.300   
   1.000   
 n=6   1   1                         # n, l, Nzeta 
   8.446   
   1.000   
Ti                    5                    # Species label, number of l-shells
 n=3   0   1                         # n, l, Nzeta 
   2.635   
   1.000   
 n=4   0   2                         # n, l, Nzeta 
   6.844      5.301   
   1.000      1.000   
 n=3   1   1                         # n, l, Nzeta 
   2.931   
   1.000   
 n=4   1   1                         # n, l, Nzeta 
   6.844   
   1.000   
 n=3   2   2                         # n, l, Nzeta 
   4.557      3.163   
   1.000      1.000   
O                     2                    # Species label, number of l-shells
 n=2   0   2                         # n, l, Nzeta 
   3.215      2.206   
   1.000      1.000   
 n=2   1   2 P   1                   # n, l, Nzeta, Polarization, NzetaPol
   3.820      2.601   
   1.000      1.000   
%endblock PAO.Basis

prinput: ----------------------------------------------------------------------

Dumping basis to NetCDF file Ba.ion.nc
Dumping basis to NetCDF file Ti.ion.nc
Dumping basis to NetCDF file O.ion.nc
coor:   Atomic-coordinates input format  =     Cartesian coordinates
coor:                                          (in Angstroms)

siesta: Atomic coordinates (Bohr) and species
siesta:      0.00000   0.00000  10.83011  1        1
siesta:      0.00000   5.40952   5.39651  1        2
siesta:      3.76371   0.00000   5.23252  2        3
siesta:      3.76371   5.40952  10.66612  2        4
siesta:      3.76371   2.63484   2.88102  3        5
siesta:      3.76371   8.18421   2.88102  3        6
siesta:      3.76371   8.04436   8.31462  3        7
siesta:      3.76371   2.77469   8.31462  3        8
siesta:      0.00000   0.00000   5.56179  3        9
siesta:      0.00000   5.40952   0.12818  3       10

siesta: System type = bulk      

initatomlists: Number of atoms, orbitals, and projectors:     10   134   150

coxmol: Writing XMOL coordinates into file relaxation.xyz                                                                                                                                                                                                                      

siesta: ******************** Simulation parameters ****************************
siesta:
siesta: The following are some of the parameters of the simulation.
siesta: A complete list of the parameters used, including default values,
siesta: can be found in file out.fdf
siesta:
redata: Spin configuration                          = none
redata: Number of spin components                   = 1
redata: Time-Reversal Symmetry                      = T
redata: Spin spiral                                 = F
redata: Long output                                 =   F
redata: Number of Atomic Species                    =        3
redata: Charge density info will appear in .RHO file
redata: Write Mulliken charges (when)               = none
redata: Write Mulliken Pop.                         = NO
redata: Write Hirshfeld charges (when)              = none
redata: Write Voronoi charges (when)                = none
redata: Write spin charge (when)                    = none
redata: Matel table size (NRTAB)                    =     1024
redata: Mesh Cutoff                                 =   300.0000 Ry
redata: Net charge of the system                    =     0.0000 |e|
redata: Min. number of SCF Iter                     =        0
redata: Max. number of SCF Iter                     =     1000
redata: SCF convergence failure will abort job
redata: SCF mix quantity                            = Hamiltonian
redata: Mix DM or H after convergence               =   F
redata: Recompute H after scf cycle                 =   F
redata: Mix DM in first SCF step                    =   T
redata: Write Pulay info on disk                    =   F
redata: New DM Occupancy tolerance                  = 0.000000000001
redata: No kicks to SCF
redata: DM Mixing Weight for Kicks                  =     0.5000
redata: Require Harris convergence for SCF          =   F
redata: Harris energy tolerance for SCF             =     0.000100 eV
redata: Require DM convergence for SCF              =   T
redata: DM tolerance for SCF                        =     0.000100
redata: Require EDM convergence for SCF             =   F
redata: EDM tolerance for SCF                       =     0.001000 eV
redata: Require H convergence for SCF               =   T
redata: Hamiltonian tolerance for SCF               =     0.001000 eV
redata: Require (free) Energy convergence for SCF   =   F
redata: (free) Energy tolerance for SCF             =     0.000100 eV
redata: Using DFT-D3 dispersion                     =   F
redata: Using Saved Data (generic)                  =   F
redata: Use continuation files for DM               =   T
redata: Neglect nonoverlap interactions             =   F
redata: Method of Calculation                       = Diagonalization
redata: Electronic Temperature                      =   300.0000 K
redata: Fix the spin of the system                  =   F
redata: Max. number of TDED Iter                    =        1
redata: Number of TDED substeps                     =        3
redata: Dynamics option                             = CG coord. optimization
redata: Variable cell                               =   T
redata: Use continuation files for CG               =   F
redata: Max atomic displ per move                   =     0.1058 Ang
redata: Maximum number of optimization moves        =      100
redata: Force tolerance                             =     0.0050 eV/Ang
redata: Stress tolerance                            =     0.0100 GPa
mix.SCF: Pulay mixing                            = Pulay
mix.SCF:    Variant                              = stable
mix.SCF:    History steps                        = 2
mix.SCF:    Linear mixing weight                 =     0.250000
mix.SCF:    Mixing weight                        =     0.250000
mix.SCF:    SVD condition                        = 0.1000E-07
redata: Save all siesta data in one NC              =   F
redata: ***********************************************************************

%block SCF.Mixers
  Pulay
%endblock SCF.Mixers

%block SCF.Mixer.Pulay
  # Mixing method
  method pulay
  variant stable

  # Mixing options
  weight 0.2500
  weight.linear 0.2500
  history 2
%endblock SCF.Mixer.Pulay

DM_history_depth set to one: no extrapolation allowed by default for geometry relaxation
Size of DM history Fstack: 1
Total number of electrons:    80.000000
Total ionic charge:    80.000000
 Kpoints in:           18 . Kpoints trimmed:           14

siesta: k-grid: Number of k-points = 14
siesta: k-points from Monkhorst-Pack grid
siesta: k-cutoff (effective) =     5.975 Ang
siesta: k-point supercell and displacements
siesta: k-grid:     3     0     0      0.000
siesta: k-grid:     0     3     0      0.000
siesta: k-grid:     0     0     3      0.000

diag: Algorithm                                     = D&C
diag: Used triangular part                          = Lower
diag: Absolute tolerance                            =  0.100E-15
diag: Orthogonalization factor                      =  0.100E-05
diag: Memory factor                                 =  1.0000

superc: Internal auxiliary supercell:     5 x     5 x     5  =     125
superc: Number of atoms, orbitals, and projectors:   1250  16750  18750


ts: **************************************************************
ts: Save H and S matrices                           =    F
ts: Save TSHS files in MD/FC simulation             =    F
ts: Save DM and EDM matrices                        =    F
ts: Only save the overlap matrix S                  =    F
ts: **************************************************************

************************ Begin: TS CHECKS AND WARNINGS ************************
************************ End: TS CHECKS AND WARNINGS **************************


                     ====================================
                        Begin CG opt. move =      0
                     ====================================

superc: Internal auxiliary supercell:     5 x     5 x     5  =     125
superc: Number of atoms, orbitals, and projectors:   1250  16750  18750

outcell: Unit cell vectors (Ang):
        3.983334    0.000000    0.000000
        0.000000    5.725190    0.000000
        0.000000    0.000000    5.750679

outcell: Cell vector modules (Ang)   :    3.983334    5.725190    5.750679
outcell: Cell angles (23,13,12) (deg):     90.0000     90.0000     90.0000
outcell: Cell volume (Ang**3)        :    131.1462
<dSpData1D:S at geom step 0
  <sparsity:sparsity for geom step 0
    nrows_g=134 nrows=134 sparsity=4.7150 nnzs=84662, refcount: 7>
  <dData1D:(new from dSpData1D) n=84662, refcount: 1>
refcount: 1>
new_DM -- step:     1
Initializing Density Matrix...

Attempting to read DM from file... Failed...
DM filled with atomic data:
<dSpData2D:DM initialized from atoms
  <sparsity:sparsity for geom step 0
    nrows_g=134 nrows=134 sparsity=4.7150 nnzs=84662, refcount: 8>
  <dData2D:DM n=84662 m=1, refcount: 1>
refcount: 1>
No. of atoms with KB's overlaping orbs in proc 0. Max # of overlaps:      91     185

InitMesh: MESH = 48 x 60 x 60 = 172800
InitMesh: Mesh cutoff (required, used) =   300.000   300.861 Ry
New grid distribution [1]: sub = 2

stepf: Fermi-Dirac step function

siesta: Program's energy decomposition (eV):
siesta: Ebs     =     -1817.900418
siesta: Eions   =     11173.991398
siesta: Ena     =      1842.055880
siesta: Ekin    =      3491.630436
siesta: Enl     =      -336.076507
siesta: Eso     =         0.000000
siesta: Edftu   =         0.000000
siesta: DEna    =        87.744726
siesta: DUscf   =        34.009178
siesta: DUext   =         0.000000
siesta: Ex      =     -1436.435782
siesta: Ec      =      -106.774383
siesta: Exc     =     -1543.210165
siesta: EbV     =         0.000000
siesta: eta*DQ  =         0.000000
siesta: Emadel  =         0.000000
siesta: Emeta   =         0.000000
siesta: Emolmec =         0.000000
siesta: Ekinion =         0.000000
siesta: Eharris =     -7583.182622
siesta: Etot    =     -7597.837850
siesta: FreeEng =     -7597.837850

        iscf     Eharris(eV)        E_KS(eV)     FreeEng(eV)     dDmax    Ef(eV) dHmax(eV)
   scf:    1    -7583.182622    -7597.837850    -7597.837850  9.773036 -4.610989 17.995771
timer: Routine,Calls,Time,% = IterSCF        1       1.140  13.35
   scf:    2    -7624.807925    -7615.759075    -7615.759075  0.131666 -5.059309  5.553976
   scf:    3    -7616.256703    -7616.850585    -7616.850585  0.135880 -5.553592  1.232526
   scf:    4    -7617.121165    -7617.126221    -7617.126221  0.051114 -6.061279  0.931466
   scf:    5    -7617.192158    -7617.164442    -7617.164442  0.036917 -6.174793  0.350558
   scf:    6    -7617.187600    -7617.177446    -7617.177446  0.041963 -6.225215  0.124567
   scf:    7    -7617.180924    -7617.179389    -7617.179389  0.017981 -6.237543  0.051398
   scf:    8    -7617.180326    -7617.179880    -7617.179880  0.009632 -6.231440  0.038301
   scf:    9    -7617.180543    -7617.180240    -7617.180240  0.015590 -6.223262  0.020197
   scf:   10    -7617.180291    -7617.180274    -7617.180274  0.005600 -6.215171  0.008234
   scf:   11    -7617.180278    -7617.180278    -7617.180278  0.001306 -6.213212  0.006726
   scf:   12    -7617.180281    -7617.180280    -7617.180280  0.000121 -6.211985  0.001596
   scf:   13    -7617.180281    -7617.180281    -7617.180281  0.000110 -6.211836  0.001630
   scf:   14    -7617.180281    -7617.180281    -7617.180281  0.000069 -6.211556  0.000382

SCF Convergence by DM+H criterion
max |DM_out - DM_in|         :     0.0000692413
max |H_out - H_in|      (eV) :     0.0003819007
SCF cycle converged after 14 iterations

Using DM_out to compute the final energy and forces
No. of atoms with KB's overlaping orbs in proc 0. Max # of overlaps:      91     185

siesta: E_KS(eV) =            -7617.1803

siesta: E_KS - E_eggbox =     -7617.1803

siesta: Atomic forces (eV/Ang):
----------------------------------------
   Tot   -0.000000    0.000000    0.001374
----------------------------------------
   Max    0.953867
   Res    0.317685    sqrt( Sum f_i^2 / 3N )
----------------------------------------
   Max    0.953867    constrained

Stress tensor Voigt[x,y,z,yz,xz,xy] (kbar):      442.81      405.88      395.21       -0.00       -0.00       -0.00
(Free)E + p*V (eV/cell)    -7651.1203
Target enthalpy (eV/cell)    -7617.1803

siesta: Stress tensor (static) (eV/Ang**3):
         0.276383   -0.000000   -0.000000
        -0.000000    0.253329    0.000000
        -0.000000   -0.000000    0.246673

siesta: Pressure (static):       -414.63534641  kBar

siesta: Stress tensor (total) (eV/Ang**3):
         0.276383   -0.000000   -0.000000
        -0.000000    0.253329    0.000000
        -0.000000   -0.000000    0.246673

siesta: Pressure (total):       -414.63534641  kBar

No target stress found, assuming hydrostatic MD.TargetPressure.

Target stress (kBar)
         -0.000       0.000       0.000
          0.000      -0.000       0.000
          0.000       0.000      -0.000

                     ====================================
                        Begin CG opt. move =      1
                     ====================================
 Kpoints in:           18 . Kpoints trimmed:           14

siesta: k-grid: Number of k-points = 14
siesta: k-points from Monkhorst-Pack grid
siesta: k-cutoff (effective) =     5.898 Ang
siesta: k-point supercell and displacements
siesta: k-grid:     3     0     0      0.000
siesta: k-grid:     0     3     0      0.000
siesta: k-grid:     0     0     3      0.000

superc: Internal auxiliary supercell:     5 x     5 x     5  =     125
superc: Number of atoms, orbitals, and projectors:   1250  16750  18750

outcell: Unit cell vectors (Ang):
        3.931967    0.000000    0.000000
        0.000000    5.657520    0.000000
        0.000000    0.000000    5.684493

outcell: Cell vector modules (Ang)   :    3.931967    5.657520    5.684493
outcell: Cell angles (23,13,12) (deg):     90.0000     90.0000     90.0000
outcell: Cell volume (Ang**3)        :    126.4526
<dSpData1D:S at geom step 1
  <sparsity:sparsity for geom step 1
    nrows_g=134 nrows=134 sparsity=5.3260 nnzs=95634, refcount: 7>
  <dData1D:(new from dSpData1D) n=95634, refcount: 1>
refcount: 1>
new_DM -- step:     2
Re-using DM from previous geometries...
Number of DMs in history: 1
 DM extrapolation coefficients: 
1   1.00000
New DM after history re-use:
<dSpData2D:SpM extrapolated using coords
  <sparsity:sparsity for geom step 1
    nrows_g=134 nrows=134 sparsity=5.3260 nnzs=95634, refcount: 9>
  <dData2D:(temp array for extrapolation) n=95634 m=1, refcount: 1>
refcount: 1>
Note: For starting DM, Qtot, Tr[D*S] =         80.00000000         80.33465708
No. of atoms with KB's overlaping orbs in proc 0. Max # of overlaps:      93     205

InitMesh: MESH = 48 x 60 x 60 = 172800
InitMesh: Mesh cutoff (required, used) =   300.000   307.908 Ry
New grid distribution [1]: sub = 2

        iscf     Eharris(eV)        E_KS(eV)     FreeEng(eV)     dDmax    Ef(eV) dHmax(eV)
   scf:    1    -7609.956265    -7617.972712    -7617.972712  1.141759 -6.677416  2.015524
   scf:    2    -7616.742659    -7617.760251    -7617.760251  0.339780 -5.439742  3.242911
   scf:    3    -7618.397262    -7618.244269    -7618.244269  0.164657 -6.207905  0.281409
   scf:    4    -7618.247423    -7618.246002    -7618.246002  0.020526 -6.198258  0.170731
   scf:    5    -7618.247247    -7618.246640    -7618.246640  0.014520 -6.208318  0.093207
   scf:    6    -7618.247197    -7618.246926    -7618.246926  0.010825 -6.221509  0.036164
   scf:    7    -7618.247057    -7618.246995    -7618.246995  0.006217 -6.230457  0.005455
   scf:    8    -7618.247003    -7618.246999    -7618.246999  0.001358 -6.232856  0.002727
   scf:    9    -7618.246999    -7618.246999    -7618.246999  0.000380 -6.233504  0.004161
   scf:   10    -7618.246999    -7618.246999    -7618.246999  0.000102 -6.233388  0.003508
   scf:   11    -7618.247000    -7618.247000    -7618.247000  0.000191 -6.232978  0.002127
   scf:   12    -7618.247000    -7618.247000    -7618.247000  0.000178 -6.232645  0.000952
   scf:   13    -7618.247000    -7618.247000    -7618.247000  0.000112 -6.232476  0.000307
   scf:   14    -7618.247000    -7618.247000    -7618.247000  0.000061 -6.232425  0.000151

SCF Convergence by DM+H criterion
max |DM_out - DM_in|         :     0.0000607203
max |H_out - H_in|      (eV) :     0.0001505479
SCF cycle converged after 14 iterations

Using DM_out to compute the final energy and forces
No. of atoms with KB's overlaping orbs in proc 0. Max # of overlaps:      93     205

siesta: E_KS(eV) =            -7618.2470

siesta: Atomic forces (eV/Ang):
----------------------------------------
   Tot   -0.000000    0.000000    0.031968
----------------------------------------
   Max    0.767742
   Res    0.313949    sqrt( Sum f_i^2 / 3N )
----------------------------------------
   Max    0.767742    constrained

Stress tensor Voigt[x,y,z,yz,xz,xy] (kbar):      314.01      298.34      281.76        0.00       -0.00        0.00
(Free)E + p*V (eV/cell)    -7641.7695
Target enthalpy (eV/cell)    -7618.2470

siesta: Stress tensor (static) (eV/Ang**3):
         0.195989    0.000000   -0.000000
         0.000000    0.186208    0.000000
        -0.000000    0.000000    0.175858

siesta: Pressure (static):       -298.03430297  kBar

siesta: Stress tensor (total) (eV/Ang**3):
         0.195989    0.000000   -0.000000
         0.000000    0.186208    0.000000
        -0.000000    0.000000    0.175858

siesta: Pressure (total):       -298.03430297  kBar

                     ====================================
                        Begin CG opt. move =      2
                     ====================================
 Kpoints in:           18 . Kpoints trimmed:           14

siesta: k-grid: Number of k-points = 14
siesta: k-points from Monkhorst-Pack grid
siesta: k-cutoff (effective) =     5.775 Ang
siesta: k-point supercell and displacements
siesta: k-grid:     3     0     0      0.000
siesta: k-grid:     0     3     0      0.000
siesta: k-grid:     0     0     3      0.000

superc: Internal auxiliary supercell:     5 x     5 x     5  =     125
superc: Number of atoms, orbitals, and projectors:   1250  16750  18750

outcell: Unit cell vectors (Ang):
        3.849780    0.000000    0.000000
        0.000000    5.549247    0.000000
        0.000000    0.000000    5.578595

outcell: Cell vector modules (Ang)   :    3.849780    5.549247    5.578595
outcell: Cell angles (23,13,12) (deg):     90.0000     90.0000     90.0000
outcell: Cell volume (Ang**3)        :    119.1776
<dSpData1D:S at geom step 2
  <sparsity:sparsity for geom step 2
    nrows_g=134 nrows=134 sparsity=6.3670 nnzs=114326, refcount: 7>
  <dData1D:(new from dSpData1D) n=114326, refcount: 1>
refcount: 1>
new_DM -- step:     3
Re-using DM from previous geometries...
Number of DMs in history: 1
 DM extrapolation coefficients: 
1   1.00000
New DM after history re-use:
<dSpData2D:SpM extrapolated using coords
  <sparsity:sparsity for geom step 2
    nrows_g=134 nrows=134 sparsity=6.3670 nnzs=114326, refcount: 9>
  <dData2D:(temp array for extrapolation) n=114326 m=1, refcount: 1>
refcount: 1>
Note: For starting DM, Qtot, Tr[D*S] =         80.00000000         80.57137148
No. of atoms with KB's overlaping orbs in proc 0. Max # of overlaps:     101     242

InitMesh: MESH = 48 x 60 x 60 = 172800
InitMesh: Mesh cutoff (required, used) =   300.000   319.709 Ry
New grid distribution [1]: sub = 2

        iscf     Eharris(eV)        E_KS(eV)     FreeEng(eV)     dDmax    Ef(eV) dHmax(eV)
   scf:    1    -7604.388102    -7618.516201    -7618.516201  1.721132 -7.483555  3.426001
   scf:    2    -7615.742306    -7618.141698    -7618.141698  0.593337 -5.190500  5.046081
   scf:    3    -7619.748375    -7619.293918    -7619.293918  0.291524 -6.543901  0.417032
   scf:    4    -7619.301739    -7619.298707    -7619.298707  0.031165 -6.559276  0.275457
   scf:    5    -7619.301907    -7619.300392    -7619.300392  0.023774 -6.564964  0.156278
   scf:    6    -7619.301800    -7619.301127    -7619.301127  0.018843 -6.582495  0.066035
   scf:    7    -7619.301452    -7619.301297    -7619.301297  0.009331 -6.590527  0.019968
   scf:    8    -7619.301343    -7619.301321    -7619.301321  0.003212 -6.594947  0.004708
   scf:    9    -7619.301327    -7619.301324    -7619.301324  0.000980 -6.596038  0.001765
   scf:   10    -7619.301325    -7619.301325    -7619.301325  0.000400 -6.596534  0.001694
   scf:   11    -7619.301325    -7619.301325    -7619.301325  0.000100 -6.596415  0.001593
   scf:   12    -7619.301325    -7619.301325    -7619.301325  0.000173 -6.596235  0.001047
   scf:   13    -7619.301325    -7619.301325    -7619.301325  0.000086 -6.596101  0.000612

SCF Convergence by DM+H criterion
max |DM_out - DM_in|         :     0.0000855075
max |H_out - H_in|      (eV) :     0.0006124037
SCF cycle converged after 13 iterations

Using DM_out to compute the final energy and forces
No. of atoms with KB's overlaping orbs in proc 0. Max # of overlaps:     101     242

siesta: E_KS(eV) =            -7619.3013

siesta: Atomic forces (eV/Ang):
----------------------------------------
   Tot    0.000000   -0.000000   -0.002287
----------------------------------------
   Max    1.477671
   Res    0.683918    sqrt( Sum f_i^2 / 3N )
----------------------------------------
   Max    1.477671    constrained

Stress tensor Voigt[x,y,z,yz,xz,xy] (kbar):      161.74      187.45      163.97       -0.00       -0.00        0.00
(Free)E + p*V (eV/cell)    -7632.0251
Target enthalpy (eV/cell)    -7619.3013

siesta: Stress tensor (static) (eV/Ang**3):
         0.100953    0.000000   -0.000000
         0.000000    0.116996   -0.000000
        -0.000000   -0.000000    0.102340

siesta: Pressure (static):       -171.05332317  kBar

siesta: Stress tensor (total) (eV/Ang**3):
         0.100953    0.000000   -0.000000
         0.000000    0.116996   -0.000000
        -0.000000   -0.000000    0.102340

siesta: Pressure (total):       -171.05332317  kBar

                     ====================================
                        Begin CG opt. move =      3
                     ====================================
 Kpoints in:           18 . Kpoints trimmed:           14

siesta: k-grid: Number of k-points = 14
siesta: k-points from Monkhorst-Pack grid
siesta: k-cutoff (effective) =     5.648 Ang
siesta: k-point supercell and displacements
siesta: k-grid:     3     0     0      0.000
siesta: k-grid:     0     3     0      0.000
siesta: k-grid:     0     0     3      0.000

superc: Internal auxiliary supercell:     5 x     5 x     5  =     125
superc: Number of atoms, orbitals, and projectors:   1250  16750  18750

outcell: Unit cell vectors (Ang):
        3.765464    0.000000    0.000000
        0.000000    5.438170    0.000000
        0.000000    0.000000    5.469955

outcell: Cell vector modules (Ang)   :    3.765464    5.438170    5.469955
outcell: Cell angles (23,13,12) (deg):     90.0000     90.0000     90.0000
outcell: Cell volume (Ang**3)        :    112.0095
<dSpData1D:S at geom step 3
  <sparsity:sparsity for geom step 3
    nrows_g=134 nrows=134 sparsity=6.9460 nnzs=124722, refcount: 7>
  <dData1D:(new from dSpData1D) n=124722, refcount: 1>
refcount: 1>
new_DM -- step:     4
Re-using DM from previous geometries...
Number of DMs in history: 1
 DM extrapolation coefficients: 
1   1.00000
New DM after history re-use:
<dSpData2D:SpM extrapolated using coords
  <sparsity:sparsity for geom step 3
    nrows_g=134 nrows=134 sparsity=6.9460 nnzs=124722, refcount: 9>
  <dData2D:(temp array for extrapolation) n=124722 m=1, refcount: 1>
refcount: 1>
Note: For starting DM, Qtot, Tr[D*S] =         80.00000000         80.56195056
No. of atoms with KB's overlaping orbs in proc 0. Max # of overlaps:     108     274

InitMesh: MESH = 40 x 60 x 60 = 144000
InitMesh: Mesh cutoff (required, used) =   300.000   311.878 Ry
New grid distribution [1]: sub = 2

        iscf     Eharris(eV)        E_KS(eV)     FreeEng(eV)     dDmax    Ef(eV) dHmax(eV)
   scf:    1    -7603.553220    -7619.051227    -7619.051227  1.789984 -7.390274  3.409716
   scf:    2    -7616.965263    -7618.904049    -7618.904049  0.652836 -6.437055  4.517238
   scf:    3    -7620.286115    -7619.862832    -7619.862832  0.338841 -6.287880  0.373883
   scf:    4    -7619.869767    -7619.867087    -7619.867087  0.029635 -6.307322  0.251728
   scf:    5    -7619.869940    -7619.868556    -7619.868556  0.022840 -6.312914  0.147266
   scf:    6    -7619.870035    -7619.869326    -7619.869326  0.024161 -6.328276  0.038963
   scf:    7    -7619.869466    -7619.869399    -7619.869399  0.006129 -6.333160  0.010695
   scf:    8    -7619.869421    -7619.869411    -7619.869411  0.002278 -6.336003  0.002528
   scf:    9    -7619.869413    -7619.869412    -7619.869412  0.000576 -6.336852  0.002767
   scf:   10    -7619.869412    -7619.869412    -7619.869412  0.000190 -6.337017  0.002953
   scf:   11    -7619.869412    -7619.869412    -7619.869412  0.000269 -6.336873  0.002222
   scf:   12    -7619.869412    -7619.869412    -7619.869412  0.000261 -6.336645  0.001176
   scf:   13    -7619.869412    -7619.869412    -7619.869412  0.000141 -6.336509  0.000524
   scf:   14    -7619.869412    -7619.869412    -7619.869412  0.000079 -6.336440  0.000154

SCF Convergence by DM+H criterion
max |DM_out - DM_in|         :     0.0000790506
max |H_out - H_in|      (eV) :     0.0001544713
SCF cycle converged after 14 iterations

Using DM_out to compute the final energy and forces
No. of atoms with KB's overlaping orbs in proc 0. Max # of overlaps:     108     274

siesta: E_KS(eV) =            -7619.8694

siesta: Atomic forces (eV/Ang):
----------------------------------------
   Tot   -0.000000    0.000000    0.017862
----------------------------------------
   Max    3.398246
   Res    1.348740    sqrt( Sum f_i^2 / 3N )
----------------------------------------
   Max    3.398246    constrained

Stress tensor Voigt[x,y,z,yz,xz,xy] (kbar):       34.92      137.26      123.58        0.00       -0.00        0.00
(Free)E + p*V (eV/cell)    -7626.7615
Target enthalpy (eV/cell)    -7619.8694

siesta: Stress tensor (static) (eV/Ang**3):
         0.021794    0.000000    0.000000
         0.000000    0.085669    0.000000
        -0.000000    0.000000    0.077131

siesta: Pressure (static):        -98.58410049  kBar

siesta: Stress tensor (total) (eV/Ang**3):
         0.021794    0.000000    0.000000
         0.000000    0.085669    0.000000
        -0.000000    0.000000    0.077131

siesta: Pressure (total):        -98.58410049  kBar

                     ====================================
                        Begin CG opt. move =      4
                     ====================================
 Kpoints in:           18 . Kpoints trimmed:           14

siesta: k-grid: Number of k-points = 14
siesta: k-points from Monkhorst-Pack grid
siesta: k-cutoff (effective) =     5.522 Ang
siesta: k-point supercell and displacements
siesta: k-grid:     3     0     0      0.000
siesta: k-grid:     0     3     0      0.000
siesta: k-grid:     0     0     3      0.000

superc: Internal auxiliary supercell:     5 x     5 x     5  =     125
superc: Number of atoms, orbitals, and projectors:   1250  16750  18750

outcell: Unit cell vectors (Ang):
        3.681149    0.000000    0.000000
        0.000000    5.327093    0.000000
        0.000000    0.000000    5.361314

outcell: Cell vector modules (Ang)   :    3.681149    5.327093    5.361314
outcell: Cell angles (23,13,12) (deg):     90.0000     90.0000     90.0000
outcell: Cell volume (Ang**3)        :    105.1344
<dSpData1D:S at geom step 4
  <sparsity:sparsity for geom step 4
    nrows_g=134 nrows=134 sparsity=7.0696 nnzs=126942, refcount: 7>
  <dData1D:(new from dSpData1D) n=126942, refcount: 1>
refcount: 1>
new_DM -- step:     5
Re-using DM from previous geometries...
Number of DMs in history: 1
 DM extrapolation coefficients: 
1   1.00000
New DM after history re-use:
<dSpData2D:SpM extrapolated using coords
  <sparsity:sparsity for geom step 4
    nrows_g=134 nrows=134 sparsity=7.0696 nnzs=126942, refcount: 9>
  <dData2D:(temp array for extrapolation) n=126942 m=1, refcount: 1>
refcount: 1>
Note: For starting DM, Qtot, Tr[D*S] =         80.00000000         80.50550329
No. of atoms with KB's overlaping orbs in proc 0. Max # of overlaps:     110     274

InitMesh: MESH = 40 x 60 x 60 = 144000
InitMesh: Mesh cutoff (required, used) =   300.000   326.329 Ry
New grid distribution [1]: sub = 2

        iscf     Eharris(eV)        E_KS(eV)     FreeEng(eV)     dDmax    Ef(eV) dHmax(eV)
   scf:    1    -7602.905262    -7619.291093    -7619.291093  2.103374 -7.134228  3.160787
   scf:    2    -7617.942306    -7619.330213    -7619.330213  0.712412 -5.890829  3.692387
   scf:    3    -7620.394165    -7620.045981    -7620.045981  0.358029 -5.706365  0.311769
   scf:    4    -7620.051069    -7620.048977    -7620.048977  0.025007 -5.718237  0.213182
   scf:    5    -7620.051324    -7620.050176    -7620.050176  0.020963 -5.717771  0.121774
   scf:    6    -7620.051338    -7620.050787    -7620.050787  0.024533 -5.722444  0.014779
   scf:    7    -7620.050820    -7620.050804    -7620.050804  0.002042 -5.724300  0.005210
   scf:    8    -7620.050814    -7620.050810    -7620.050810  0.001699 -5.726342  0.002839
   scf:    9    -7620.050810    -7620.050810    -7620.050810  0.000222 -5.726514  0.002473
   scf:   10    -7620.050811    -7620.050810    -7620.050810  0.000511 -5.726760  0.001268
   scf:   11    -7620.050810    -7620.050810    -7620.050810  0.000123 -5.726728  0.000784
   scf:   12    -7620.050810    -7620.050810    -7620.050810  0.000149 -5.726675  0.000143
   scf:   13    -7620.050810    -7620.050810    -7620.050810  0.000012 -5.726664  0.000078

SCF Convergence by DM+H criterion
max |DM_out - DM_in|         :     0.0000124681
max |H_out - H_in|      (eV) :     0.0000777826
SCF cycle converged after 13 iterations

Using DM_out to compute the final energy and forces
No. of atoms with KB's overlaping orbs in proc 0. Max # of overlaps:     110     274

siesta: E_KS(eV) =            -7620.0508

siesta: Atomic forces (eV/Ang):
----------------------------------------
   Tot   -0.000001    0.000000    0.025605
----------------------------------------
   Max    5.720983
   Res    2.064140    sqrt( Sum f_i^2 / 3N )
----------------------------------------
   Max    5.720983    constrained

Stress tensor Voigt[x,y,z,yz,xz,xy] (kbar):      -47.40       33.03       74.87        0.00       -0.00        0.00
(Free)E + p*V (eV/cell)    -7621.3743
Target enthalpy (eV/cell)    -7620.0508

siesta: Stress tensor (static) (eV/Ang**3):
        -0.029583    0.000000   -0.000000
         0.000000    0.020617    0.000000
        -0.000000    0.000000    0.046732

siesta: Pressure (static):        -20.16944096  kBar

siesta: Stress tensor (total) (eV/Ang**3):
        -0.029583    0.000000   -0.000000
         0.000000    0.020617    0.000000
        -0.000000    0.000000    0.046732

siesta: Pressure (total):        -20.16944096  kBar

                     ====================================
                        Begin CG opt. move =      5
                     ====================================
 Kpoints in:           18 . Kpoints trimmed:           14

siesta: k-grid: Number of k-points = 14
siesta: k-points from Monkhorst-Pack grid
siesta: k-cutoff (effective) =     5.534 Ang
siesta: k-point supercell and displacements
siesta: k-grid:     3     0     0      0.000
siesta: k-grid:     0     3     0      0.000
siesta: k-grid:     0     0     3      0.000

superc: Internal auxiliary supercell:     5 x     5 x     5  =     125
superc: Number of atoms, orbitals, and projectors:   1250  16750  18750

outcell: Unit cell vectors (Ang):
        3.689580    0.000000    0.000000
        0.000000    5.338200    0.000000
        0.000000    0.000000    5.372177

outcell: Cell vector modules (Ang)   :    3.689580    5.338200    5.372177
outcell: Cell angles (23,13,12) (deg):     90.0000     90.0000     90.0000
outcell: Cell volume (Ang**3)        :    105.8089
<dSpData1D:S at geom step 5
  <sparsity:sparsity for geom step 5
    nrows_g=134 nrows=134 sparsity=7.0696 nnzs=126942, refcount: 7>
  <dData1D:(new from dSpData1D) n=126942, refcount: 1>
refcount: 1>
new_DM -- step:     6
Re-using DM from previous geometries...
Number of DMs in history: 1
 DM extrapolation coefficients: 
1   1.00000
New DM after history re-use:
<dSpData2D:SpM extrapolated using coords
  <sparsity:sparsity for geom step 5
    nrows_g=134 nrows=134 sparsity=7.0696 nnzs=126942, refcount: 9>
  <dData2D:(temp array for extrapolation) n=126942 m=1, refcount: 1>
refcount: 1>
No. of atoms with KB's overlaping orbs in proc 0. Max # of overlaps:     110     274

InitMesh: MESH = 40 x 60 x 60 = 144000
InitMesh: Mesh cutoff (required, used) =   300.000   324.839 Ry
New grid distribution [1]: sub = 2

        iscf     Eharris(eV)        E_KS(eV)     FreeEng(eV)     dDmax    Ef(eV) dHmax(eV)
   scf:    1    -7621.864344    -7620.045273    -7620.045273  0.251117 -6.241745  0.259261
   scf:    2    -7620.036265    -7620.046406    -7620.046406  0.073186 -6.483853  0.247318
   scf:    3    -7620.054656    -7620.051830    -7620.051830  0.032614 -6.367832  0.031092
   scf:    4    -7620.051872    -7620.051851    -7620.051851  0.002288 -6.367250  0.021706
   scf:    5    -7620.051890    -7620.051872    -7620.051872  0.004906 -6.365498  0.001480
   scf:    6    -7620.051872    -7620.051872    -7620.051872  0.000238 -6.365344  0.000426
   scf:    7    -7620.051872    -7620.051872    -7620.051872  0.000177 -6.365194  0.000328
   scf:    8    -7620.051872    -7620.051872    -7620.051872  0.000030 -6.365179  0.000296

SCF Convergence by DM+H criterion
max |DM_out - DM_in|         :     0.0000300275
max |H_out - H_in|      (eV) :     0.0002960270
SCF cycle converged after 8 iterations

Using DM_out to compute the final energy and forces
No. of atoms with KB's overlaping orbs in proc 0. Max # of overlaps:     110     274

siesta: E_KS(eV) =            -7620.0519

siesta: Atomic forces (eV/Ang):
----------------------------------------
   Tot   -0.000001    0.000001   -0.035035
----------------------------------------
   Max    5.481412
   Res    1.992398    sqrt( Sum f_i^2 / 3N )
----------------------------------------
   Max    5.481412    constrained

Stress tensor Voigt[x,y,z,yz,xz,xy] (kbar):      -41.76       49.64       83.30        0.00        0.00        0.00
(Free)E + p*V (eV/cell)    -7622.0589
Target enthalpy (eV/cell)    -7620.0519

siesta: Stress tensor (static) (eV/Ang**3):
        -0.026068    0.000000    0.000000
         0.000000    0.030984    0.000000
         0.000000    0.000000    0.051989

siesta: Pressure (static):        -30.39096867  kBar

siesta: Stress tensor (total) (eV/Ang**3):
        -0.026068    0.000000    0.000000
         0.000000    0.030984    0.000000
         0.000000    0.000000    0.051989

siesta: Pressure (total):        -30.39096867  kBar

cgvc: Finished line minimization    1.  Mean atomic displacement =    0.1454

                     ====================================
                        Begin CG opt. move =      6
                     ====================================
 Kpoints in:           18 . Kpoints trimmed:           14

siesta: k-grid: Number of k-points = 14
siesta: k-points from Monkhorst-Pack grid
siesta: k-cutoff (effective) =     5.431 Ang
siesta: k-point supercell and displacements
siesta: k-grid:     3     0     0      0.000
siesta: k-grid:     0     3     0      0.000
siesta: k-grid:     0     0     3      0.000

superc: Internal auxiliary supercell:     5 x     5 x     5  =     125
superc: Number of atoms, orbitals, and projectors:   1250  16750  18750

outcell: Unit cell vectors (Ang):
        3.620554    0.000000    0.000000
        0.000000    5.223463   -0.000000
        0.000000   -0.000000    5.250452

outcell: Cell vector modules (Ang)   :    3.620554    5.223463    5.250452
outcell: Cell angles (23,13,12) (deg):     90.0000     90.0000     90.0000
outcell: Cell volume (Ang**3)        :     99.2957
<dSpData1D:S at geom step 6
  <sparsity:sparsity for geom step 6
    nrows_g=134 nrows=134 sparsity=7.1264 nnzs=127962, refcount: 7>
  <dData1D:(new from dSpData1D) n=127962, refcount: 1>
refcount: 1>
new_DM -- step:     7
Re-using DM from previous geometries...
Number of DMs in history: 1
 DM extrapolation coefficients: 
1   1.00000
New DM after history re-use:
<dSpData2D:SpM extrapolated using coords
  <sparsity:sparsity for geom step 6
    nrows_g=134 nrows=134 sparsity=7.1264 nnzs=127962, refcount: 9>
  <dData2D:(temp array for extrapolation) n=127962 m=1, refcount: 1>
refcount: 1>
Note: For starting DM, Qtot, Tr[D*S] =         80.00000000         80.48170636
No. of atoms with KB's overlaping orbs in proc 0. Max # of overlaps:     111     274

InitMesh: MESH = 40 x 60 x 60 = 144000
InitMesh: Mesh cutoff (required, used) =   300.000   337.343 Ry
New grid distribution [1]: sub = 2

        iscf     Eharris(eV)        E_KS(eV)     FreeEng(eV)     dDmax    Ef(eV) dHmax(eV)
   scf:    1    -7603.987868    -7620.373144    -7620.373144  3.715506 -7.150247  2.363743
   scf:    2    -7617.295391    -7619.875943    -7619.875943  0.738720 -5.732530  3.344285
   scf:    3    -7621.544655    -7621.125547    -7621.125547  0.415403 -6.252204  0.360398
   scf:    4    -7621.134036    -7621.130215    -7621.130215  0.035706 -6.204617  0.209050
   scf:    5    -7621.133250    -7621.131793    -7621.131793  0.024869 -6.192497  0.102879
   scf:    6    -7621.132852    -7621.132337    -7621.132337  0.012851 -6.196787  0.047933
   scf:    7    -7621.132705    -7621.132532    -7621.132532  0.009973 -6.203910  0.008961
   scf:    8    -7621.132551    -7621.132542    -7621.132542  0.001241 -6.206703  0.003615
   scf:    9    -7621.132544    -7621.132543    -7621.132543  0.000565 -6.208366  0.004384
   scf:   10    -7621.132544    -7621.132544    -7621.132544  0.000389 -6.208598  0.003450
   scf:   11    -7621.132544    -7621.132544    -7621.132544  0.000615 -6.208648  0.001724
   scf:   12    -7621.132544    -7621.132544    -7621.132544  0.000282 -6.208532  0.000788
   scf:   13    -7621.132544    -7621.132544    -7621.132544  0.000185 -6.208409  0.000223
   scf:   14    -7621.132544    -7621.132544    -7621.132544  0.000019 -6.208375  0.000109

SCF Convergence by DM+H criterion
max |DM_out - DM_in|         :     0.0000187039
max |H_out - H_in|      (eV) :     0.0001085855
SCF cycle converged after 14 iterations

Using DM_out to compute the final energy and forces
No. of atoms with KB's overlaping orbs in proc 0. Max # of overlaps:     111     274

siesta: E_KS(eV) =            -7621.1325

siesta: Atomic forces (eV/Ang):
----------------------------------------
   Tot    0.000000    0.000001   -0.012975
----------------------------------------
   Max    0.654880
   Res    0.308717    sqrt( Sum f_i^2 / 3N )
----------------------------------------
   Max    0.654880    constrained

Stress tensor Voigt[x,y,z,yz,xz,xy] (kbar):     -134.49      -35.86      -14.73       -0.00        0.00        0.00
(Free)E + p*V (eV/cell)    -7617.3092
Target enthalpy (eV/cell)    -7621.1325

siesta: Stress tensor (static) (eV/Ang**3):
        -0.083940    0.000000    0.000000
         0.000000   -0.022381   -0.000000
         0.000000   -0.000000   -0.009193

siesta: Pressure (static):         61.69146372  kBar

siesta: Stress tensor (total) (eV/Ang**3):
        -0.083940    0.000000    0.000000
         0.000000   -0.022381   -0.000000
         0.000000   -0.000000   -0.009193

siesta: Pressure (total):         61.69146372  kBar

                     ====================================
                        Begin CG opt. move =      7
                     ====================================
 Kpoints in:           18 . Kpoints trimmed:           14

siesta: k-grid: Number of k-points = 14
siesta: k-points from Monkhorst-Pack grid
siesta: k-cutoff (effective) =     5.327 Ang
siesta: k-point supercell and displacements
siesta: k-grid:     3     0     0      0.000
siesta: k-grid:     0     3     0      0.000
siesta: k-grid:     0     0     3      0.000

superc: Internal auxiliary supercell:     5 x     5 x     5  =     125
superc: Number of atoms, orbitals, and projectors:   1250  16750  18750

outcell: Unit cell vectors (Ang):
        3.551528    0.000000   -0.000000
        0.000000    5.108727   -0.000000
       -0.000000   -0.000000    5.128727

outcell: Cell vector modules (Ang)   :    3.551528    5.108727    5.128727
outcell: Cell angles (23,13,12) (deg):     90.0000     90.0000     90.0000
outcell: Cell volume (Ang**3)        :     93.0545
<dSpData1D:S at geom step 7
  <sparsity:sparsity for geom step 7
    nrows_g=134 nrows=134 sparsity=7.4285 nnzs=133386, refcount: 7>
  <dData1D:(new from dSpData1D) n=133386, refcount: 1>
refcount: 1>
new_DM -- step:     8
Re-using DM from previous geometries...
Number of DMs in history: 1
 DM extrapolation coefficients: 
1   1.00000
New DM after history re-use:
<dSpData2D:SpM extrapolated using coords
  <sparsity:sparsity for geom step 7
    nrows_g=134 nrows=134 sparsity=7.4285 nnzs=133386, refcount: 9>
  <dData2D:(temp array for extrapolation) n=133386 m=1, refcount: 1>
refcount: 1>
Note: For starting DM, Qtot, Tr[D*S] =         80.00000000         80.49375999
No. of atoms with KB's overlaping orbs in proc 0. Max # of overlaps:     111     277

InitMesh: MESH = 40 x 54 x 54 = 116640
InitMesh: Mesh cutoff (required, used) =   300.000   306.387 Ry
New grid distribution [1]: sub = 2

        iscf     Eharris(eV)        E_KS(eV)     FreeEng(eV)     dDmax    Ef(eV) dHmax(eV)
   scf:    1    -7598.565455    -7618.896573    -7618.896573  1.621659 -7.874172  2.339110
   scf:    2    -7616.774073    -7618.717270    -7618.717270  0.765675 -6.331504  2.868745
   scf:    3    -7620.093316    -7619.700351    -7619.700351  0.385668 -7.835537  0.281704
   scf:    4    -7619.706216    -7619.703466    -7619.703466  0.027584 -7.802075  0.167461
   scf:    5    -7619.706302    -7619.704929    -7619.704929  0.020648 -7.797684  0.080457
   scf:    6    -7619.705918    -7619.705439    -7619.705439  0.011442 -7.804126  0.031377
   scf:    7    -7619.705679    -7619.705566    -7619.705566  0.006294 -7.811193  0.008339
   scf:    8    -7619.705580    -7619.705574    -7619.705574  0.001418 -7.813937  0.003755
   scf:    9    -7619.705575    -7619.705575    -7619.705575  0.000949 -7.815110  0.004229
   scf:   10    -7619.705576    -7619.705575    -7619.705575  0.000479 -7.815239  0.003131
   scf:   11    -7619.705576    -7619.705576    -7619.705576  0.000567 -7.815113  0.001544
   scf:   12    -7619.705576    -7619.705576    -7619.705576  0.000287 -7.814918  0.000694
   scf:   13    -7619.705576    -7619.705576    -7619.705576  0.000134 -7.814773  0.000260
   scf:   14    -7619.705576    -7619.705576    -7619.705576  0.000045 -7.814736  0.000105

SCF Convergence by DM+H criterion
max |DM_out - DM_in|         :     0.0000448784
max |H_out - H_in|      (eV) :     0.0001048782
SCF cycle converged after 14 iterations

Using DM_out to compute the final energy and forces
No. of atoms with KB's overlaping orbs in proc 0. Max # of overlaps:     111     277

siesta: E_KS(eV) =            -7619.7056

siesta: Atomic forces (eV/Ang):
----------------------------------------
   Tot    0.000000    0.000001   -0.073130
----------------------------------------
   Max    5.181207
   Res    1.877067    sqrt( Sum f_i^2 / 3N )
----------------------------------------
   Max    5.181207    constrained

Stress tensor Voigt[x,y,z,yz,xz,xy] (kbar):     -437.73     -314.63     -343.24       -0.00       -0.00        0.00
(Free)E + p*V (eV/cell)    -7598.4946
Target enthalpy (eV/cell)    -7619.7056

siesta: Stress tensor (static) (eV/Ang**3):
        -0.273212    0.000000   -0.000000
         0.000000   -0.196377   -0.000000
        -0.000000   -0.000000   -0.214234

siesta: Pressure (static):        365.20211557  kBar

siesta: Stress tensor (total) (eV/Ang**3):
        -0.273212    0.000000   -0.000000
         0.000000   -0.196377   -0.000000
        -0.000000   -0.000000   -0.214234

siesta: Pressure (total):        365.20211557  kBar

                     ====================================
                        Begin CG opt. move =      8
                     ====================================
 Kpoints in:           18 . Kpoints trimmed:           14

siesta: k-grid: Number of k-points = 14
siesta: k-points from Monkhorst-Pack grid
siesta: k-cutoff (effective) =     5.431 Ang
siesta: k-point supercell and displacements
siesta: k-grid:     3     0     0      0.000
siesta: k-grid:     0     3     0      0.000
siesta: k-grid:     0     0     3      0.000

superc: Internal auxiliary supercell:     5 x     5 x     5  =     125
superc: Number of atoms, orbitals, and projectors:   1250  16750  18750

outcell: Unit cell vectors (Ang):
        3.620511    0.000000    0.000000
        0.000000    5.223392   -0.000000
        0.000000   -0.000000    5.250377

outcell: Cell vector modules (Ang)   :    3.620511    5.223392    5.250377
outcell: Cell angles (23,13,12) (deg):     90.0000     90.0000     90.0000
outcell: Cell volume (Ang**3)        :     99.2917
<dSpData1D:S at geom step 8
  <sparsity:sparsity for geom step 8
    nrows_g=134 nrows=134 sparsity=7.1264 nnzs=127962, refcount: 7>
  <dData1D:(new from dSpData1D) n=127962, refcount: 1>
refcount: 1>
new_DM -- step:     9
Re-using DM from previous geometries...
Number of DMs in history: 1
 DM extrapolation coefficients: 
1   1.00000
New DM after history re-use:
<dSpData2D:SpM extrapolated using coords
  <sparsity:sparsity for geom step 8
    nrows_g=134 nrows=134 sparsity=7.1264 nnzs=127962, refcount: 9>
  <dData2D:(temp array for extrapolation) n=127962 m=1, refcount: 1>
refcount: 1>
Note: For starting DM, Qtot, Tr[D*S] =         80.00000000         80.26132168
No. of atoms with KB's overlaping orbs in proc 0. Max # of overlaps:     111     274

InitMesh: MESH = 40 x 60 x 60 = 144000
InitMesh: Mesh cutoff (required, used) =   300.000   337.351 Ry
New grid distribution [1]: sub = 2

        iscf     Eharris(eV)        E_KS(eV)     FreeEng(eV)     dDmax    Ef(eV) dHmax(eV)
   scf:    1    -7644.068205    -7620.606832    -7620.606832  1.479628 -5.846135  1.707162
   scf:    2    -7616.528847    -7619.664093    -7619.664093  0.705920 -7.896805  2.727038
   scf:    3    -7621.525447    -7621.116505    -7621.116505  0.363913 -6.132076  0.545360
   scf:    4    -7621.136152    -7621.126978    -7621.126978  0.053461 -6.191966  0.338035
   scf:    5    -7621.135413    -7621.131514    -7621.131514  0.055678 -6.223439  0.125495
   scf:    6    -7621.132831    -7621.132185    -7621.132185  0.015591 -6.219587  0.067014
   scf:    7    -7621.132815    -7621.132519    -7621.132519  0.016786 -6.211597  0.009173
   scf:    8    -7621.132540    -7621.132530    -7621.132530  0.001669 -6.208920  0.004214
   scf:    9    -7621.132533    -7621.132532    -7621.132532  0.000745 -6.206840  0.004982
   scf:   10    -7621.132533    -7621.132532    -7621.132532  0.000351 -6.206631  0.003889
   scf:   11    -7621.132533    -7621.132533    -7621.132533  0.000680 -6.206540  0.001668
   scf:   12    -7621.132533    -7621.132533    -7621.132533  0.000235 -6.206647  0.000829
   scf:   13    -7621.132533    -7621.132533    -7621.132533  0.000203 -6.206773  0.000258
   scf:   14    -7621.132533    -7621.132533    -7621.132533  0.000024 -6.206801  0.000144

SCF Convergence by DM+H criterion
max |DM_out - DM_in|         :     0.0000242948
max |H_out - H_in|      (eV) :     0.0001436325
SCF cycle converged after 14 iterations

Using DM_out to compute the final energy and forces
No. of atoms with KB's overlaping orbs in proc 0. Max # of overlaps:     111     274

siesta: E_KS(eV) =            -7621.1325

siesta: Atomic forces (eV/Ang):
----------------------------------------
   Tot   -0.000001   -0.000000   -0.012812
----------------------------------------
   Max    0.653800
   Res    0.308000    sqrt( Sum f_i^2 / 3N )
----------------------------------------
   Max    0.653800    constrained

Stress tensor Voigt[x,y,z,yz,xz,xy] (kbar):     -134.71      -36.06      -14.92       -0.00        0.00        0.00
(Free)E + p*V (eV/cell)    -7617.2964
Target enthalpy (eV/cell)    -7621.1325

siesta: Stress tensor (static) (eV/Ang**3):
        -0.084082    0.000000    0.000000
         0.000000   -0.022507   -0.000000
         0.000000   -0.000000   -0.009315

siesta: Pressure (static):         61.89983290  kBar

siesta: Stress tensor (total) (eV/Ang**3):
        -0.084082    0.000000    0.000000
         0.000000   -0.022507   -0.000000
         0.000000   -0.000000   -0.009315

siesta: Pressure (total):         61.89983290  kBar

cgvc: Finished line minimization    2.  Mean atomic displacement =    0.0793

                     ====================================
                        Begin CG opt. move =      9
                     ====================================
 Kpoints in:           18 . Kpoints trimmed:           14

siesta: k-grid: Number of k-points = 14
siesta: k-points from Monkhorst-Pack grid
siesta: k-cutoff (effective) =     5.557 Ang
siesta: k-point supercell and displacements
siesta: k-grid:     3     0     0      0.000
siesta: k-grid:     0     3     0      0.000
siesta: k-grid:     0     0     3      0.000

superc: Internal auxiliary supercell:     5 x     5 x     5  =     125
superc: Number of atoms, orbitals, and projectors:   1250  16750  18750

outcell: Unit cell vectors (Ang):
        3.704826   -0.000000   -0.000000
       -0.000000    5.272176    0.000000
       -0.000000    0.000000    5.284378

outcell: Cell vector modules (Ang)   :    3.704826    5.272176    5.284378
outcell: Cell angles (23,13,12) (deg):     90.0000     90.0000     90.0000
outcell: Cell volume (Ang**3)        :    103.2171
<dSpData1D:S at geom step 9
  <sparsity:sparsity for geom step 9
    nrows_g=134 nrows=134 sparsity=7.1061 nnzs=127598, refcount: 7>
  <dData1D:(new from dSpData1D) n=127598, refcount: 1>
refcount: 1>
new_DM -- step:    10
Re-using DM from previous geometries...
Number of DMs in history: 1
 DM extrapolation coefficients: 
1   1.00000
New DM after history re-use:
<dSpData2D:SpM extrapolated using coords
  <sparsity:sparsity for geom step 9
    nrows_g=134 nrows=134 sparsity=7.1061 nnzs=127598, refcount: 9>
  <dData2D:(temp array for extrapolation) n=127598 m=1, refcount: 1>
refcount: 1>
Note: For starting DM, Qtot, Tr[D*S] =         80.00000000         79.85975306
No. of atoms with KB's overlaping orbs in proc 0. Max # of overlaps:     111     274

InitMesh: MESH = 40 x 60 x 60 = 144000
InitMesh: Mesh cutoff (required, used) =   300.000   322.171 Ry
New grid distribution [1]: sub = 2

        iscf     Eharris(eV)        E_KS(eV)     FreeEng(eV)     dDmax    Ef(eV) dHmax(eV)
   scf:    1    -7633.309917    -7620.969091    -7620.969091  1.654718 -5.817651  1.388687
   scf:    2    -7620.407260    -7620.944867    -7620.944867  0.538076 -7.122478  1.773521
   scf:    3    -7621.337718    -7621.219848    -7621.219848  0.239453 -6.531170  0.224356
   scf:    4    -7621.221810    -7621.220860    -7621.220860  0.021567 -6.541747  0.145123
   scf:    5    -7621.222179    -7621.221536    -7621.221536  0.023197 -6.540226  0.062604
   scf:    6    -7621.221900    -7621.221724    -7621.221724  0.012960 -6.534877  0.016750
   scf:    7    -7621.221774    -7621.221751    -7621.221751  0.004980 -6.530925  0.004166
   scf:    8    -7621.221753    -7621.221752    -7621.221752  0.000864 -6.529333  0.004417
   scf:    9    -7621.221753    -7621.221752    -7621.221752  0.000236 -6.528703  0.004241
   scf:   10    -7621.221753    -7621.221753    -7621.221753  0.000423 -6.528549  0.002986
   scf:   11    -7621.221753    -7621.221753    -7621.221753  0.000488 -6.528599  0.001432
   scf:   12    -7621.221753    -7621.221753    -7621.221753  0.000277 -6.528707  0.000482
   scf:   13    -7621.221753    -7621.221753    -7621.221753  0.000112 -6.528780  0.000132
   scf:   14    -7621.221753    -7621.221753    -7621.221753  0.000036 -6.528812  0.000104

SCF Convergence by DM+H criterion
max |DM_out - DM_in|         :     0.0000363838
max |H_out - H_in|      (eV) :     0.0001040567
SCF cycle converged after 14 iterations

Using DM_out to compute the final energy and forces
No. of atoms with KB's overlaping orbs in proc 0. Max # of overlaps:     111     274

siesta: E_KS(eV) =            -7621.2218

siesta: Atomic forces (eV/Ang):
----------------------------------------
   Tot   -0.000000    0.000000    0.045903
----------------------------------------
   Max    0.491342
   Res    0.185290    sqrt( Sum f_i^2 / 3N )
----------------------------------------
   Max    0.491342    constrained

Stress tensor Voigt[x,y,z,yz,xz,xy] (kbar):      -10.88       85.67       91.75        0.00       -0.00       -0.00
(Free)E + p*V (eV/cell)    -7624.7980
Target enthalpy (eV/cell)    -7621.2218

siesta: Stress tensor (static) (eV/Ang**3):
        -0.006792   -0.000000   -0.000000
        -0.000000    0.053473    0.000000
        -0.000000    0.000000    0.057263

siesta: Pressure (static):        -55.51210128  kBar

siesta: Stress tensor (total) (eV/Ang**3):
        -0.006792   -0.000000   -0.000000
        -0.000000    0.053473    0.000000
        -0.000000    0.000000    0.057263

siesta: Pressure (total):        -55.51210128  kBar

                     ====================================
                        Begin CG opt. move =     10
                     ====================================
 Kpoints in:           18 . Kpoints trimmed:           14

siesta: k-grid: Number of k-points = 14
siesta: k-points from Monkhorst-Pack grid
siesta: k-cutoff (effective) =     5.522 Ang
siesta: k-point supercell and displacements
siesta: k-grid:     3     0     0      0.000
siesta: k-grid:     0     3     0      0.000
siesta: k-grid:     0     0     3      0.000

superc: Internal auxiliary supercell:     5 x     5 x     5  =     125
superc: Number of atoms, orbitals, and projectors:   1250  16750  18750

outcell: Unit cell vectors (Ang):
        3.681565    0.000000   -0.000000
        0.000000    5.258717    0.000000
       -0.000000    0.000000    5.274997

outcell: Cell vector modules (Ang)   :    3.681565    5.258717    5.274997
outcell: Cell angles (23,13,12) (deg):     90.0000     90.0000     90.0000
outcell: Cell volume (Ang**3)        :    102.1256
<dSpData1D:S at geom step 10
  <sparsity:sparsity for geom step 10
    nrows_g=134 nrows=134 sparsity=7.1157 nnzs=127770, refcount: 7>
  <dData1D:(new from dSpData1D) n=127770, refcount: 1>
refcount: 1>
new_DM -- step:    11
Re-using DM from previous geometries...
Number of DMs in history: 1
 DM extrapolation coefficients: 
1   1.00000
New DM after history re-use:
<dSpData2D:SpM extrapolated using coords
  <sparsity:sparsity for geom step 10
    nrows_g=134 nrows=134 sparsity=7.1157 nnzs=127770, refcount: 9>
  <dData2D:(temp array for extrapolation) n=127770 m=1, refcount: 1>
refcount: 1>
No. of atoms with KB's overlaping orbs in proc 0. Max # of overlaps:     111     274

InitMesh: MESH = 40 x 60 x 60 = 144000
InitMesh: Mesh cutoff (required, used) =   300.000   326.255 Ry
New grid distribution [1]: sub = 2

        iscf     Eharris(eV)        E_KS(eV)     FreeEng(eV)     dDmax    Ef(eV) dHmax(eV)
   scf:    1    -7618.140542    -7621.216782    -7621.216782  0.658918 -6.891540  0.466779
   scf:    2    -7621.171774    -7621.216020    -7621.216020  0.146129 -6.453140  0.466938
   scf:    3    -7621.248925    -7621.238762    -7621.238762  0.067908 -6.665118  0.058163
   scf:    4    -7621.238904    -7621.238838    -7621.238838  0.005419 -6.661841  0.037305
   scf:    5    -7621.238918    -7621.238879    -7621.238879  0.005256 -6.661540  0.017769
   scf:    6    -7621.238905    -7621.238893    -7621.238893  0.003264 -6.662716  0.005775
   scf:    7    -7621.238897    -7621.238895    -7621.238895  0.001461 -6.663753  0.001238
   scf:    8    -7621.238895    -7621.238895    -7621.238895  0.000291 -6.664202  0.000854
   scf:    9    -7621.238895    -7621.238895    -7621.238895  0.000049 -6.664388  0.000960

SCF Convergence by DM+H criterion
max |DM_out - DM_in|         :     0.0000485287
max |H_out - H_in|      (eV) :     0.0009600066
SCF cycle converged after 9 iterations

Using DM_out to compute the final energy and forces
No. of atoms with KB's overlaping orbs in proc 0. Max # of overlaps:     111     274

siesta: E_KS(eV) =            -7621.2389

siesta: Atomic forces (eV/Ang):
----------------------------------------
   Tot    0.000001    0.000000   -0.032175
----------------------------------------
   Max    0.395668
   Res    0.114858    sqrt( Sum f_i^2 / 3N )
----------------------------------------
   Max    0.395668    constrained

Stress tensor Voigt[x,y,z,yz,xz,xy] (kbar):      -46.55       58.73       66.91        0.00        0.00        0.00
(Free)E + p*V (eV/cell)    -7622.9191
Target enthalpy (eV/cell)    -7621.2389

siesta: Stress tensor (static) (eV/Ang**3):
        -0.029057    0.000000    0.000000
         0.000000    0.036654    0.000000
         0.000000    0.000000    0.041762

siesta: Pressure (static):        -26.36030185  kBar

siesta: Stress tensor (total) (eV/Ang**3):
        -0.029057    0.000000    0.000000
         0.000000    0.036654    0.000000
         0.000000    0.000000    0.041762

siesta: Pressure (total):        -26.36030185  kBar

[...]
        -0.000001    0.000000   -0.000262

siesta: Pressure (total):         -0.02132461  kBar

cgvc: Finished line minimization   20.  Mean atomic displacement =    0.0015

                     ====================================
                        Begin CG opt. move =     56
                     ====================================
 Kpoints in:           18 . Kpoints trimmed:           14

siesta: k-grid: Number of k-points = 14
siesta: k-points from Monkhorst-Pack grid
siesta: k-cutoff (effective) =     5.596 Ang
siesta: k-point supercell and displacements
siesta: k-grid:     3     0     0      0.000
siesta: k-grid:     0     3     0      0.000
siesta: k-grid:     0     0     3      0.000

superc: Internal auxiliary supercell:     5 x     5 x     5  =     125
superc: Number of atoms, orbitals, and projectors:   1250  16750  18750

outcell: Unit cell vectors (Ang):
        3.730735   -0.000002    0.000003
       -0.000002    5.202061   -0.000003
        0.000004   -0.000003    5.215333

outcell: Cell vector modules (Ang)   :    3.730735    5.202061    5.215333
outcell: Cell angles (23,13,12) (deg):     90.0001     89.9999     90.0001
outcell: Cell volume (Ang**3)        :    101.2166
<dSpData1D:S at geom step 56
  <sparsity:sparsity for geom step 56
    nrows_g=134 nrows=134 sparsity=7.2002 nnzs=129286, refcount: 7>
  <dData1D:(new from dSpData1D) n=129286, refcount: 1>
refcount: 1>
new_DM -- step:    57
Re-using DM from previous geometries...
Number of DMs in history: 1
 DM extrapolation coefficients: 
1   1.00000
New DM after history re-use:
<dSpData2D:SpM extrapolated using coords
  <sparsity:sparsity for geom step 56
    nrows_g=134 nrows=134 sparsity=7.2002 nnzs=129286, refcount: 9>
  <dData2D:(temp array for extrapolation) n=129286 m=1, refcount: 1>
refcount: 1>
No. of atoms with KB's overlaping orbs in proc 0. Max # of overlaps:     111     277

InitMesh: MESH = 40 x 60 x 60 = 144000
InitMesh: Mesh cutoff (required, used) =   300.000   317.712 Ry
New grid distribution [1]: sub = 2

        iscf     Eharris(eV)        E_KS(eV)     FreeEng(eV)     dDmax    Ef(eV) dHmax(eV)
   scf:    1    -7621.374133    -7621.309647    -7621.309647  0.015510 -6.622580  0.020389
   scf:    2    -7621.308721    -7621.309391    -7621.309391  0.002884 -6.622543  0.062990
   scf:    3    -7621.309766    -7621.309693    -7621.309693  0.001808 -6.623300  0.004024
   scf:    4    -7621.309695    -7621.309694    -7621.309694  0.000249 -6.623618  0.002623
   scf:    5    -7621.309695    -7621.309695    -7621.309695  0.000337 -6.623926  0.000773
   scf:    6    -7621.309695    -7621.309695    -7621.309695  0.000060 -6.623914  0.000471

SCF Convergence by DM+H criterion
max |DM_out - DM_in|         :     0.0000600141
max |H_out - H_in|      (eV) :     0.0004710271
SCF cycle converged after 6 iterations

Using DM_out to compute the final energy and forces
No. of atoms with KB's overlaping orbs in proc 0. Max # of overlaps:     111     277

siesta: E_KS(eV) =            -7621.3097

siesta: Atomic forces (eV/Ang):
----------------------------------------
   Tot    0.000118    0.001030    0.001600
----------------------------------------
   Max    0.057915
   Res    0.017170    sqrt( Sum f_i^2 / 3N )
----------------------------------------
   Max    0.057915    constrained

Stress tensor Voigt[x,y,z,yz,xz,xy] (kbar):       -0.08        0.57        0.63        0.03        0.00       -0.00
(Free)E + p*V (eV/cell)    -7621.3332
Target enthalpy (eV/cell)    -7621.3097

siesta: Stress tensor (static) (eV/Ang**3):
        -0.000053   -0.000001    0.000000
        -0.000001    0.000356    0.000020
         0.000000    0.000020    0.000395

siesta: Pressure (static):         -0.37240590  kBar

siesta: Stress tensor (total) (eV/Ang**3):
        -0.000053   -0.000001    0.000000
        -0.000001    0.000356    0.000020
         0.000000    0.000020    0.000395

siesta: Pressure (total):         -0.37240590  kBar

                     ====================================
                        Begin CG opt. move =     57
                     ====================================
 Kpoints in:           18 . Kpoints trimmed:           14

siesta: k-grid: Number of k-points = 14
siesta: k-points from Monkhorst-Pack grid
siesta: k-cutoff (effective) =     5.597 Ang
siesta: k-point supercell and displacements
siesta: k-grid:     3     0     0      0.000
siesta: k-grid:     0     3     0      0.000
siesta: k-grid:     0     0     3      0.000

superc: Internal auxiliary supercell:     5 x     5 x     5  =     125
superc: Number of atoms, orbitals, and projectors:   1250  16750  18750

outcell: Unit cell vectors (Ang):
        3.731366    0.000000    0.000001
        0.000001    5.201332   -0.000002
        0.000001   -0.000002    5.214217

outcell: Cell vector modules (Ang)   :    3.731366    5.201332    5.214217
outcell: Cell angles (23,13,12) (deg):     90.0000     90.0000     90.0000
outcell: Cell volume (Ang**3)        :    101.1979
<dSpData1D:S at geom step 57
  <sparsity:sparsity for geom step 57
    nrows_g=134 nrows=134 sparsity=7.2002 nnzs=129286, refcount: 7>
  <dData1D:(new from dSpData1D) n=129286, refcount: 1>
refcount: 1>
new_DM -- step:    58
Re-using DM from previous geometries...
Number of DMs in history: 1
 DM extrapolation coefficients: 
1   1.00000
New DM after history re-use:
<dSpData2D:SpM extrapolated using coords
  <sparsity:sparsity for geom step 57
    nrows_g=134 nrows=134 sparsity=7.2002 nnzs=129286, refcount: 9>
  <dData2D:(temp array for extrapolation) n=129286 m=1, refcount: 1>
refcount: 1>
No. of atoms with KB's overlaping orbs in proc 0. Max # of overlaps:     111     277

InitMesh: MESH = 40 x 60 x 60 = 144000
InitMesh: Mesh cutoff (required, used) =   300.000   317.604 Ry
New grid distribution [1]: sub = 2

        iscf     Eharris(eV)        E_KS(eV)     FreeEng(eV)     dDmax    Ef(eV) dHmax(eV)
   scf:    1    -7621.259813    -7621.309719    -7621.309719  0.011965 -6.622475  0.015806
   scf:    2    -7621.309165    -7621.309565    -7621.309565  0.002249 -6.622461  0.048675
   scf:    3    -7621.309790    -7621.309747    -7621.309747  0.001406 -6.621895  0.003140
   scf:    4    -7621.309748    -7621.309747    -7621.309747  0.000195 -6.621652  0.002049
   scf:    5    -7621.309748    -7621.309747    -7621.309747  0.000265 -6.621410  0.000598
   scf:    6    -7621.309748    -7621.309747    -7621.309747  0.000046 -6.621421  0.000365

SCF Convergence by DM+H criterion
max |DM_out - DM_in|         :     0.0000464250
max |H_out - H_in|      (eV) :     0.0003650500
SCF cycle converged after 6 iterations

Using DM_out to compute the final energy and forces
No. of atoms with KB's overlaping orbs in proc 0. Max # of overlaps:     111     277

siesta: E_KS(eV) =            -7621.3097

siesta: Atomic forces (eV/Ang):
----------------------------------------
   Tot    0.000439   -0.000198   -0.002756
----------------------------------------
   Max    0.009584
   Res    0.002898    sqrt( Sum f_i^2 / 3N )
----------------------------------------
   Max    0.009584    constrained

Stress tensor Voigt[x,y,z,yz,xz,xy] (kbar):        0.60        0.05       -0.13        0.01        0.00        0.00
(Free)E + p*V (eV/cell)    -7621.3207
Target enthalpy (eV/cell)    -7621.3097

siesta: Stress tensor (static) (eV/Ang**3):
         0.000375    0.000000    0.000002
         0.000000    0.000030    0.000007
         0.000002    0.000007   -0.000080

siesta: Pressure (static):         -0.17354719  kBar

siesta: Stress tensor (total) (eV/Ang**3):
         0.000375    0.000000    0.000002
         0.000000    0.000030    0.000007
         0.000002    0.000007   -0.000080

siesta: Pressure (total):         -0.17354719  kBar

cgvc: Finished line minimization   21.  Mean atomic displacement =    0.0003

                     ====================================
                        Begin CG opt. move =     58
                     ====================================
 Kpoints in:           18 . Kpoints trimmed:           14

siesta: k-grid: Number of k-points = 14
siesta: k-points from Monkhorst-Pack grid
siesta: k-cutoff (effective) =     5.597 Ang
siesta: k-point supercell and displacements
siesta: k-grid:     3     0     0      0.000
siesta: k-grid:     0     3     0      0.000
siesta: k-grid:     0     0     3      0.000

superc: Internal auxiliary supercell:     5 x     5 x     5  =     125
superc: Number of atoms, orbitals, and projectors:   1250  16750  18750

outcell: Unit cell vectors (Ang):
        3.731078   -0.000000    0.000001
       -0.000000    5.201482   -0.000006
        0.000001   -0.000006    5.214516

outcell: Cell vector modules (Ang)   :    3.731078    5.201482    5.214516
outcell: Cell angles (23,13,12) (deg):     90.0001     90.0000     90.0000
outcell: Cell volume (Ang**3)        :    101.1988
<dSpData1D:S at geom step 58
  <sparsity:sparsity for geom step 58
    nrows_g=134 nrows=134 sparsity=7.2002 nnzs=129286, refcount: 7>
  <dData1D:(new from dSpData1D) n=129286, refcount: 1>
refcount: 1>
new_DM -- step:    59
Re-using DM from previous geometries...
Number of DMs in history: 1
 DM extrapolation coefficients: 
1   1.00000
New DM after history re-use:
<dSpData2D:SpM extrapolated using coords
  <sparsity:sparsity for geom step 58
    nrows_g=134 nrows=134 sparsity=7.2002 nnzs=129286, refcount: 9>
  <dData2D:(temp array for extrapolation) n=129286 m=1, refcount: 1>
refcount: 1>
No. of atoms with KB's overlaping orbs in proc 0. Max # of overlaps:     111     277

InitMesh: MESH = 40 x 60 x 60 = 144000
InitMesh: Mesh cutoff (required, used) =   300.000   317.653 Ry
New grid distribution [1]: sub = 2

        iscf     Eharris(eV)        E_KS(eV)     FreeEng(eV)     dDmax    Ef(eV) dHmax(eV)
   scf:    1    -7621.310334    -7621.309748    -7621.309748  0.003603 -6.620346  0.004158
   scf:    2    -7621.309719    -7621.309740    -7621.309740  0.000532 -6.619004  0.011171
   scf:    3    -7621.309752    -7621.309750    -7621.309750  0.000355 -6.619927  0.000501
   scf:    4    -7621.309750    -7621.309750    -7621.309750  0.000031 -6.619884  0.000328

SCF Convergence by DM+H criterion
max |DM_out - DM_in|         :     0.0000308961
max |H_out - H_in|      (eV) :     0.0003278403
SCF cycle converged after 4 iterations

Using DM_out to compute the final energy and forces
No. of atoms with KB's overlaping orbs in proc 0. Max # of overlaps:     111     277

siesta: E_KS(eV) =            -7621.3097

siesta: Atomic forces (eV/Ang):
----------------------------------------
   Tot   -0.000044    0.000175   -0.001802
----------------------------------------
   Max    0.002218
   Res    0.000957    sqrt( Sum f_i^2 / 3N )
----------------------------------------
   Max    0.002218    constrained

Stress tensor Voigt[x,y,z,yz,xz,xy] (kbar):        0.06        0.07       -0.10        0.00        0.00       -0.00
(Free)E + p*V (eV/cell)    -7621.3106
Target enthalpy (eV/cell)    -7621.3097

siesta: Stress tensor (static) (eV/Ang**3):
         0.000037   -0.000000    0.000001
        -0.000000    0.000046    0.000002
         0.000001    0.000002   -0.000059

siesta: Pressure (static):         -0.01306338  kBar

siesta: Stress tensor (total) (eV/Ang**3):
         0.000037   -0.000000    0.000001
        -0.000000    0.000046    0.000002
         0.000001    0.000002   -0.000059

siesta: Pressure (total):         -0.01306338  kBar

outcoor: Relaxed atomic coordinates (Ang):                  
    0.00000274    0.00004247    5.18435165   1       1  Ba
    0.00000346    2.60069902    2.57708322   1       2  Ba
    1.86553695   -0.00001002    2.58709998   2       3  Ti
    1.86553712    2.60076336    5.19433799   2       4  Ti
    1.86554045    1.34500161    1.41452845   3       5  O
    1.86554041    3.85643047    1.41453955   3       6  O
    1.86554060    3.94577376    4.02179143   3       7  O
    1.86554066    1.25572635    4.02179419   3       8  O
   -0.00000007    0.00002270    2.76563160   3       9  O
   -0.00000007    2.60070534    0.15837391   3      10  O

outcell: Unit cell vectors (Ang):
        3.731078   -0.000000    0.000001
       -0.000000    5.201482   -0.000006
        0.000001   -0.000006    5.214516

outcell: Cell vector modules (Ang)   :    3.731078    5.201482    5.214516
outcell: Cell angles (23,13,12) (deg):     90.0001     90.0000     90.0000
outcell: Cell volume (Ang**3)        :    101.1988

coxmol: Writing XMOL coordinates into file relaxation.xyz                                                                                                                                                                                                                      

siesta: Program's energy decomposition (eV):
siesta: Ebs     =     -1875.410016
siesta: Eions   =     11173.991398
siesta: Ena     =      1815.878895
siesta: Ekin    =      3589.526813
siesta: Enl     =      -321.006598
siesta: Eso     =         0.000000
siesta: Edftu   =         0.000000
siesta: DEna    =        23.963097
siesta: DUscf   =         5.215924
siesta: DUext   =         0.000000
siesta: Ex      =     -1449.861297
siesta: Ec      =      -111.035185
siesta: Exc     =     -1560.896483
siesta: EbV     =         0.000000
siesta: eta*DQ  =         0.000000
siesta: Emadel  =         0.000000
siesta: Emeta   =         0.000000
siesta: Emolmec =         0.000000
siesta: Ekinion =         0.000000
siesta: Eharris =     -7621.309750
siesta: Etot    =     -7621.309750
siesta: FreeEng =     -7621.309750

siesta: Final energy (eV):
siesta:  Band Struct. =   -1875.410016
siesta:       Kinetic =    3589.526813
siesta:       Hartree =    1491.382794
siesta:         Edftu =       0.000000
siesta:       Eso     =       0.000000
siesta:    Ext. field =       0.000000
siesta:         Exch. =   -1449.861297
siesta:         Corr. =    -111.035185
siesta:     Bulk bias =       0.000000
siesta:   Exch.-corr. =   -1560.896483
siesta:  Ion-electron =   -6814.096444
siesta:       Ion-ion =   -4327.226430
siesta:       Ekinion =       0.000000
siesta: D3 dispersion =       0.000000
siesta:         Total =   -7621.309750
siesta:         Fermi =      -6.619884

siesta: Stress tensor (static) (eV/Ang**3):
siesta:     0.000037   -0.000000    0.000001
siesta:    -0.000000    0.000046    0.000002
siesta:     0.000001    0.000002   -0.000059

siesta: Constrained stress tensor (static) (eV/Ang**3):
siesta:     0.000037   -0.000000    0.000001
siesta:    -0.000000    0.000046    0.000002
siesta:     0.000001    0.000002   -0.000059

siesta: Cell volume =        101.198806 Ang**3

siesta: Pressure (static):
siesta:                Solid            Molecule  Units
siesta:          -0.00000009         -0.00000022  Ry/Bohr**3
siesta:          -0.00000815         -0.00002027  eV/Ang**3
siesta:          -0.01306338         -0.03246886  kBar

Basis Enthalpy Calculation:
    Basis Pressure for species 1(Ba) :      0.2000000 GPa
    Basis Pressure for species 2(Ti) :      0.2000000 GPa
    Basis Pressure for species 3(O) :      0.2000000 GPa

    Orbital volume contribution        =           4.834648 eV
    (Free)E + p_basis*V_orbitals       =       -7616.475102 eV
    (Free)Eharris+ p_basis*V_orbitals  =       -7616.475102 eV
WARNING: BASIS_ENTHALPY and BASIS_HARRIS_ENTHALPY files are deprecated. They will be removed in future releases.
Please use system_label.BASIS_ENTHALPY in your scripts instead.

siesta: Macroscopic polarization per unit cell (a.u.):
siesta: Along the lattice vectors      183.318543    255.564215    488.379439
siesta: Along cartesian directions     183.318602    255.563627    488.379160

siesta: Macroscopic polarization per unit cell (Debye):
siesta: Along the lattice vectors      465.949259    649.579442   1241.336718
siesta: Along cartesian directions     465.949409    649.577946   1241.336008

cite: Please indicate the Siesta version in published work: 5.4.2
cite: This calculation has made use of features in the following articles
cite: which we encourage you to cite in published work.
cite: (Please see "relaxation.bib" for a BibTeX file.)
        Primary SIESTA paper
          DOI: www.doi.org/10.1088/0953-8984/14/11/302
        PSML pseudopotential format
          DOI: www.doi.org/10.1016/j.cpc.2018.02.011


timer: Elapsed wall time (sec) =    1756.712
timer: CPU execution times (sec):

Routine            Calls   Time/call    Tot.time        %
siesta                 1    1755.790    1755.790   100.00
Setup                  1       0.325       0.325     0.02
bands                  1       0.000       0.000     0.00
KSV_init               1       0.000       0.000     0.00
IterGeom              59      15.925     939.578    53.51
geom_init             59       3.528     208.142    11.85
state_init            59       0.220      12.977     0.74
hsparse               59       0.084       4.948     0.28
overlap               59       0.019       1.123     0.06
Setup_H0              59       2.351     138.693     7.90
naefs                118       0.000       0.051     0.00
dnaefs                59       0.000       0.021     0.00
two-body              59       0.000       0.000     0.00
MolMec               118       0.000       0.000     0.00
kinefsm              118       0.020       2.301     0.13
nlefsm               118       0.151      17.863     1.02
DHSCF_Init            59       2.223     131.129     7.47
DHSCF1                59       0.049       2.919     0.17
InitMesh              59       0.049       2.916     0.17
INITMESH              59       0.000       0.000     0.00
DHSCF2                59       2.173     128.204     7.30
REMESH                59       0.476      28.104     1.60
REORD               2001       0.000       0.366     0.02
PHION                 59       1.432      84.499     4.81
COMM_BSC            2409       0.000       0.326     0.02
POISON               617       0.005       2.780     0.16
fft                 1234       0.002       1.852     0.11
setup_H              499       0.952     474.912    27.05
DHSCF                558       1.163     648.724    36.95
DHSCF3               558       0.952     530.958    30.24
rhoofd               558       0.452     252.005    14.35
XC                   558       0.124      68.959     3.93
GXC-CellXC           558       0.123      68.792     3.92
gridxc@cellXC        558       0.123      68.789     3.92
vmat                 558       0.370     206.242    11.75
IterSCF              440       1.235     543.315    30.94
compute_dm           440       0.281     123.669     7.04
diagon               440       0.281     123.477     7.03
c-eigval            6160       0.005      30.368     1.73
c-buildHS           6160       0.002      11.874     0.68
cdiag              27680       0.007     183.870    10.47
cdiag1             27680       0.000       8.775     0.50
cdiag2             27680       0.001      31.744     1.81
cdiag3             27680       0.004     119.496     6.81
c-eigvec            6160       0.009      55.121     3.14
cdiag4             21520       0.001      23.071     1.31
c-buildD            6160       0.006      37.863     2.16
MIXER                381       0.001       0.447     0.03
PostSCF               59       3.187     188.053    10.71
FINAL_HF              59       3.187     188.052    10.71
DHSCF4                59       1.996     117.765     6.71
dfscf                 59       1.732     102.161     5.82
overfsm               59       0.019       1.095     0.06
writeHSX              59       0.002       0.103     0.01
state_analysis        59       0.000       0.014     0.00
siesta_move           59       0.000       0.027     0.00
Analysis               1     815.866     815.866    46.47
KSV_pol                1     803.064     803.064    45.74
phirphi                3       0.142       0.426     0.02
optical                1       0.000       0.000     0.00
  

>> End of run:   9-JUN-2026  10:20:28
Job completed
Job completed
