Executable      : siesta
Version         : 5.4.2
Architecture    : x86_64
Compiler version: GNU-14.3.0
Compiler flags  : -march=nocona -mtune=haswell -ftree-vectorize -fPIC -fstack-protector-strong -fno-plt -O2 -ffunction-sections -pipe -isystem <prefix>/include -I<prefix>/_build_env/include -fdebug-prefix-map=<prefix>/work=/usr/local/src/conda/siesta-5.4.2 -fdebug-prefix-map=<prefix>=/usr/local/src/conda-prefix -I<prefix>/lib -fallow-argument-mismatch -O3
Parallelisations: none
NetCDF support
NetCDF-4 support
Lua support
DFT-D3 support

Runtime information:
* Directory : /home/UAB/1673794/Documents/polarització relaxat/run_PG3
* Running in serial mode.
>> Start of run:   4-JUN-2026  11:40:06

                           *********************** 
                           *  WELCOME TO SIESTA  * 
                           *********************** 

 NOTE: Siesta V5 introduces some new defaults for basis-set generation
 NOTE: which might lead to slightly different numerical results.
 NOTE: Please see the manual for full details and compatibility measures.


reinit: Reading from standard input
reinit: Dumping input in INPUT_TMP.34775
************************** Dump of input data file ****************************
LatticeConstant 1.0 Ang
%block LatticeVectors
 0.000140    2.097220    2.097224
 2.097217    0.000140    2.097225
 2.097227    2.097230    0.000130
%endblock LatticeVectors
NumberOfAtoms 3
AtomicCoordinatesFormat Ang
%block AtomicCoordinatesAndAtomicSpecies
 -0.75727800 -0.75728300 -0.75724900 1 # 1: Ti
  1.34020400  1.34020200  1.34025500 2 # 2: Zr
  2.38873600  2.38873800  2.38875200 3 # 3: Pb
%endblock AtomicCoordinatesAndAtomicSpecies
NumberOfSpecies 3
%block ChemicalSpeciesLabel
 1 22 Ti
 2 40 Zr
 3 82 Pb
%endblock ChemicalSpeciesLabel
# Calculation of the macroscopic polarization
%block PolarizationGrids
40   16  16
16   40  16
16   16  40
%endblock PolarizationGrids
************************** End of input data file *****************************

reinit: -----------------------------------------------------------------------
reinit: System Name: 
reinit: -----------------------------------------------------------------------
reinit: System Label: siesta
reinit: -----------------------------------------------------------------------

initatom: Reading input for the pseudopotentials and atomic orbitals ----------
Species number:   1 Atomic number:   22 Label: Ti
Species number:   2 Atomic number:   40 Label: Zr
Species number:   3 Atomic number:   82 Label: Pb

Ground state valence configuration (from tables):   4s02  4p00  3d02  4f00
Ground state valence configuration (from tables):   5s02  5p00  4d02  4f00
Ground state valence configuration (from tables):   6s02  6p02  6d00  5f00

---- Processing specs for species: Ti
Reading pseudopotential information in PSML from:
  Ti.psml
PSML file version: 1.1
Using libxc ids:  101 130
GGA--PBE XC_GGA_X_PBE--XC_GGA_C_PBE pb
PSML uuid: caed23e0-be41-11e7-4603-0bd897f88bea
Semicore shell(s) with  8 electrons included in the valence for Ti

---- Processing specs for species: Zr
Reading pseudopotential information in PSML from:
  Zr.psml
PSML file version: 1.1
Using libxc ids:  101 130
GGA--PBE XC_GGA_X_PBE--XC_GGA_C_PBE pb
PSML uuid: 855db780-be42-11e7-4bdf-8c7dadbbbec5
Semicore shell(s) with  8 electrons included in the valence for Zr

---- Processing specs for species: Pb
Reading pseudopotential information in PSML from:
  Pb.psml
PSML file version: 1.1
Using libxc ids:  101 130
GGA--PBE XC_GGA_X_PBE--XC_GGA_C_PBE pb
PSML uuid: 02ca7ab0-c73d-11ed-7328-fa0ea6bbcf0f
Semicore shell(s) with 10 electrons included in the valence for Pb

---- Pseudopotential check for Ti

Pseudized shells:
3s( 2.00) rc: 1.36
3p( 6.00) rc: 1.31
3d( 2.00) rc: 1.66
Valence configuration for ps generation: 3s:3p:3d:4s: Total charge:  12.000000
Semicore shell(s): 3s 3p
Fallback to non-perturbative polarization scheme for Ti
Please see the manual if this is not desired in principle

---- Pseudopotential check for Zr

Pseudized shells:
4s( 2.00) rc: 1.57
4p( 6.00) rc: 1.57
4d( 2.00) rc: 1.51
Valence configuration for ps generation: 4s:4p:4d:5s: Total charge:  12.000000
Semicore shell(s): 4s 4p
Fallback to non-perturbative polarization scheme for Zr
Please see the manual if this is not desired in principle

---- Pseudopotential check for Pb

Pseudized shells:
6s( 2.00) rc: 2.16
6p( 2.00) rc: 2.55
5d(10.00) rc: 2.11
5f( 0.00) rc: 2.11
Valence configuration for ps generation: 5d:6s:6p: Total charge:  14.000000
Semicore shell(s): 5d
Fallback to non-perturbative polarization scheme for Pb
Please see the manual if this is not desired in principle
For Ti, standard SIESTA heuristics set lmxkb to 3
 (one more than the basis l, including polarization orbitals).
Use PS.lmax or PS.KBprojectors blocks to override.
For Zr, standard SIESTA heuristics set lmxkb to 3
 (one more than the basis l, including polarization orbitals).
Use PS.lmax or PS.KBprojectors blocks to override.
For Pb, standard SIESTA heuristics set lmxkb to 3
 (one more than the basis l, including polarization orbitals).
Use PS.lmax or PS.KBprojectors blocks to override.
Ti pseudopotential only contains V_ls up to l=2 -- lmxkb reset.
Zr pseudopotential only contains V_ls up to l=2 -- lmxkb reset.

<basis_specs>
===============================================================================
Ti                   Z=  22    Mass=  47.867        Charge= 0.17977+309
Lmxo=2 Lmxkb= 2    BasisType=split      Semic=T
L=0  Nsemic=1  Cnfigmx=4
          i=1  nzeta=1  polorb=0  (3s)  (semicore shell)
            splnorm:   0.15000    
               vcte:    40.000    
               rinn:  -0.90000    
               qcoe:    0.0000    
               qyuk:    0.0000    
               qwid:   0.10000E-01
                rcs:    0.0000    
            lambdas:    1.0000    
          i=2  nzeta=2  polorb=0  (4s)  (to be polarized non-perturbatively)
            splnorm:   0.15000    
               vcte:    40.000    
               rinn:  -0.90000    
               qcoe:    0.0000    
               qyuk:    0.0000    
               qwid:   0.10000E-01
                rcs:    0.0000      0.0000    
            lambdas:    1.0000      1.0000    
L=1  Nsemic=1  Cnfigmx=4
          i=1  nzeta=1  polorb=0  (3p)  (semicore shell)
            splnorm:   0.15000    
               vcte:    40.000    
               rinn:  -0.90000    
               qcoe:    0.0000    
               qyuk:    0.0000    
               qwid:   0.10000E-01
                rcs:    0.0000    
            lambdas:    1.0000    
          i=2  nzeta=1  polorb=0  (4p)  (non-perturbative polarization shell)
            splnorm:   0.15000    
               vcte:    40.000    
               rinn:  -0.90000    
               qcoe:    0.0000    
               qyuk:    0.0000    
               qwid:   0.10000E-01
                rcs:    0.0000    
            lambdas:    1.0000    
L=2  Nsemic=0  Cnfigmx=3
          i=1  nzeta=2  polorb=0  (3d)
            splnorm:   0.15000    
               vcte:    40.000    
               rinn:  -0.90000    
               qcoe:    0.0000    
               qyuk:    0.0000    
               qwid:   0.10000E-01
                rcs:    0.0000      0.0000    
            lambdas:    1.0000      1.0000    
-------------------------------------------------------------------------------
L=0  Nkbl=2  erefs: 0.17977+309 0.17977+309
L=1  Nkbl=2  erefs: 0.17977+309 0.17977+309
L=2  Nkbl=1  erefs: 0.17977+309
===============================================================================
</basis_specs>

Using PAO.SplitTailNorm
atom: Called for Ti                    (Z =  22)
Maximum radius (at nrval) set to   50.00000 8518

read_vps: Pseudopotential generation method:
read_vps: ONCVPSP-3.Hamann's oncvpsp                        
Valence charge in pseudo generation:   12.00000

read_vps: Pseudopotential includes a core correction:
read_vps: Pseudo-core for xc-correction

xc_check: Exchange-correlation functional:
xc_check: Ceperley-Alder
xc_check: WARNING: Pseudopotential generated with GGA PBE functional
Got Vlocal (oncv-fit) from psml data
Choosing vlocal chloc cutoff:  3.029916
qtot up to nchloc:   12.00014688
atom: Maximum radius for chlocal:    3.02992
atom: Maximum radius for r*vlocal+2*Zval:    3.02992
Reading KB projs from Ti psml data
Using scalar-relativistic projectors in PSML file

PSML: Kleinman-Bylander projectors: 
   l= 0   rc=  1.375180   Ekb= 22.724697
   l= 0   rc=  1.375180   Ekb=  2.527278
   l= 1   rc=  1.326200   Ekb=  3.950805
   l= 1   rc=  1.327537   Ekb= -0.169333
   l= 2   rc=  1.683555   Ekb=-10.372181
   l= 2   rc=  1.683555   Ekb= -2.954901

PSML: Total number of  Kleinman-Bylander projectors:  18
atom: -------------------------------------------------------------------------

atom: SANKEY-TYPE ORBITALS:
atom: Selected multiple-zeta basis: split     

SPLIT: Orbitals with angular momentum L= 0

SPLIT: Basis orbitals for state 3s

SPLIT: PAO cut-off radius determined from an
SPLIT: energy shift=  0.010000 Ry
Split based on tail norm

   izeta = 1
                 lambda =    1.000000
                     rc =    2.855749
                 energy =   -4.563359
                kinetic =    2.254144
    potential(screened) =   -6.817503
       potential(ionic) =  -22.949635

SPLIT: Basis orbitals for state 4s

SPLIT: PAO cut-off radius determined from an
SPLIT: energy shift=  0.010000 Ry
Split based on tail norm

   izeta = 1
                 lambda =    1.000000
                     rc =    7.549687
                 energy =   -0.341611
                kinetic =    0.752547
    potential(screened) =   -1.094158
       potential(ionic) =   -8.747086

   izeta = 2
                 rmatch =    5.657963
              splitnorm =    0.150000
                 energy =   -0.213339
                kinetic =    1.315805
    potential(screened) =   -1.529145
       potential(ionic) =  -10.630224

SPLIT: Orbitals with angular momentum L= 1

SPLIT: Basis orbitals for state 3p

SPLIT: PAO cut-off radius determined from an
SPLIT: energy shift=  0.010000 Ry
Split based on tail norm

   izeta = 1
                 lambda =    1.000000
                     rc =    3.201794
                 energy =   -2.822197
                kinetic =    4.888646
    potential(screened) =   -7.710843
       potential(ionic) =  -23.353419

SPLIT: Basis orbitals for state 4p
SPLIT: Non-perturbative polarization orbs for state 4s
SPLIT: rc(1st zeta) (re)set to: 7.5497 (expansion factor: 1.0000)
Split based on tail norm

   izeta = 1
                 lambda =    1.000000
                     rc =    7.549687
                 energy =   -0.064790
                kinetic =    0.859395
    potential(screened) =   -0.924185
       potential(ionic) =   -7.531422

SPLIT: Orbitals with angular momentum L= 2

SPLIT: Basis orbitals for state 3d

SPLIT: PAO cut-off radius determined from an
SPLIT: energy shift=  0.010000 Ry
Split based on tail norm

   izeta = 1
                 lambda =    1.000000
                     rc =    5.306578
                 energy =   -0.298111
                kinetic =    6.307507
    potential(screened) =   -6.605618
       potential(ionic) =  -19.982867

   izeta = 2
                 rmatch =    3.525412
              splitnorm =    0.150000
                 energy =   -0.194750
                kinetic =    7.966997
    potential(screened) =   -8.161747
       potential(ionic) =  -22.823573
atom: Total number of Sankey-type orbitals: 19

atm_pop: Valence configuration (for local Pseudopot. screening):
 3s( 2.00) 4s( 2.00)                                                  
 3p( 6.00) 4p( 0.00)                                                  
 3d( 2.00)                                                            
Vna: chval, zval:   12.00000  12.00000

Vna:  Cut-off radius for the neutral-atom potential:   7.549687
comcore: Pseudo-core radius Rcore=  1.766828

atom: _________________________________________________________________________

<basis_specs>
===============================================================================
Zr                   Z=  40    Mass=  91.224        Charge= 0.17977+309
Lmxo=2 Lmxkb= 2    BasisType=split      Semic=T
L=0  Nsemic=1  Cnfigmx=5
          i=1  nzeta=1  polorb=0  (4s)  (semicore shell)
            splnorm:   0.15000    
               vcte:    40.000    
               rinn:  -0.90000    
               qcoe:    0.0000    
               qyuk:    0.0000    
               qwid:   0.10000E-01
                rcs:    0.0000    
            lambdas:    1.0000    
          i=2  nzeta=2  polorb=0  (5s)  (to be polarized non-perturbatively)
            splnorm:   0.15000    
               vcte:    40.000    
               rinn:  -0.90000    
               qcoe:    0.0000    
               qyuk:    0.0000    
               qwid:   0.10000E-01
                rcs:    0.0000      0.0000    
            lambdas:    1.0000      1.0000    
L=1  Nsemic=1  Cnfigmx=5
          i=1  nzeta=1  polorb=0  (4p)  (semicore shell)
            splnorm:   0.15000    
               vcte:    40.000    
               rinn:  -0.90000    
               qcoe:    0.0000    
               qyuk:    0.0000    
               qwid:   0.10000E-01
                rcs:    0.0000    
            lambdas:    1.0000    
          i=2  nzeta=1  polorb=0  (5p)  (non-perturbative polarization shell)
            splnorm:   0.15000    
               vcte:    40.000    
               rinn:  -0.90000    
               qcoe:    0.0000    
               qyuk:    0.0000    
               qwid:   0.10000E-01
                rcs:    0.0000    
            lambdas:    1.0000    
L=2  Nsemic=0  Cnfigmx=4
          i=1  nzeta=2  polorb=0  (4d)
            splnorm:   0.15000    
               vcte:    40.000    
               rinn:  -0.90000    
               qcoe:    0.0000    
               qyuk:    0.0000    
               qwid:   0.10000E-01
                rcs:    0.0000      0.0000    
            lambdas:    1.0000      1.0000    
-------------------------------------------------------------------------------
L=0  Nkbl=2  erefs: 0.17977+309 0.17977+309
L=1  Nkbl=2  erefs: 0.17977+309 0.17977+309
L=2  Nkbl=1  erefs: 0.17977+309
===============================================================================
</basis_specs>

Using PAO.SplitTailNorm
atom: Called for Zr                    (Z =  40)
Maximum radius (at nrval) set to   50.00000 8518

read_vps: Pseudopotential generation method:
read_vps: ONCVPSP-3.Hamann's oncvpsp                        
Valence charge in pseudo generation:   12.00000

read_vps: Pseudopotential includes a core correction:
read_vps: Pseudo-core for xc-correction

xc_check: Exchange-correlation functional:
xc_check: Ceperley-Alder
xc_check: WARNING: Pseudopotential generated with GGA PBE functional
Got Vlocal (oncv-fit) from psml data
Choosing vlocal chloc cutoff:  5.301264
qtot up to nchloc:   11.99990854
atom: Maximum radius for chlocal:    5.30126
atom: Maximum radius for r*vlocal+2*Zval:    5.30126
Reading KB projs from Zr psml data
Using scalar-relativistic projectors in PSML file

PSML: Kleinman-Bylander projectors: 
   l= 0   rc=  1.584930   Ekb= 21.243531
   l= 0   rc=  1.583336   Ekb=  1.797610
   l= 1   rc=  1.584930   Ekb= 11.699674
   l= 1   rc=  1.584930   Ekb=  1.500681
   l= 2   rc=  1.528534   Ekb=  3.062955
   l= 2   rc=  1.528534   Ekb=  1.006046

PSML: Total number of  Kleinman-Bylander projectors:  18
atom: -------------------------------------------------------------------------

atom: SANKEY-TYPE ORBITALS:
atom: Selected multiple-zeta basis: split     

SPLIT: Orbitals with angular momentum L= 0

SPLIT: Basis orbitals for state 4s

SPLIT: PAO cut-off radius determined from an
SPLIT: energy shift=  0.010000 Ry
Split based on tail norm

   izeta = 1
                 lambda =    1.000000
                     rc =    3.182581
                 energy =   -3.975123
                kinetic =    1.927691
    potential(screened) =   -5.902815
       potential(ionic) =  -18.729487

SPLIT: Basis orbitals for state 5s

SPLIT: PAO cut-off radius determined from an
SPLIT: energy shift=  0.010000 Ry
Split based on tail norm

   izeta = 1
                 lambda =    1.000000
                     rc =    7.826794
                 energy =   -0.334686
                kinetic =    0.734879
    potential(screened) =   -1.069565
       potential(ionic) =   -7.969808

   izeta = 2
                 rmatch =    5.918847
              splitnorm =    0.150000
                 energy =   -0.164764
                kinetic =    1.251024
    potential(screened) =   -1.415788
       potential(ionic) =   -9.535813

SPLIT: Orbitals with angular momentum L= 1

SPLIT: Basis orbitals for state 4p

SPLIT: PAO cut-off radius determined from an
SPLIT: energy shift=  0.010000 Ry
Split based on tail norm

   izeta = 1
                 lambda =    1.000000
                     rc =    3.655005
                 energy =   -2.362387
                kinetic =    3.066432
    potential(screened) =   -5.428819
       potential(ionic) =  -17.725559

SPLIT: Basis orbitals for state 5p
SPLIT: Non-perturbative polarization orbs for state 5s
SPLIT: rc(1st zeta) (re)set to: 7.8268 (expansion factor: 1.0000)
Split based on tail norm

   izeta = 1
                 lambda =    1.000000
                     rc =    7.826794
                 energy =   -0.063640
                kinetic =    0.773102
    potential(screened) =   -0.836743
       potential(ionic) =   -6.857218

SPLIT: Orbitals with angular momentum L= 2

SPLIT: Basis orbitals for state 4d

SPLIT: PAO cut-off radius determined from an
SPLIT: energy shift=  0.010000 Ry
Split based on tail norm

   izeta = 1
                 lambda =    1.000000
                     rc =    6.216596
                 energy =   -0.262679
                kinetic =    2.853653
    potential(screened) =   -3.116331
       potential(ionic) =  -12.998959

   izeta = 2
                 rmatch =    4.360292
              splitnorm =    0.150000
                 energy =   -0.167430
                kinetic =    3.761975
    potential(screened) =   -3.929405
       potential(ionic) =  -14.826800
atom: Total number of Sankey-type orbitals: 19

atm_pop: Valence configuration (for local Pseudopot. screening):
 4s( 2.00) 5s( 2.00)                                                  
 4p( 6.00) 5p( 0.00)                                                  
 4d( 2.00)                                                            
Vna: chval, zval:   12.00000  12.00000

Vna:  Cut-off radius for the neutral-atom potential:   7.826794
comcore: Pseudo-core radius Rcore=  2.643368

atom: _________________________________________________________________________

<basis_specs>
===============================================================================
Pb                   Z=  82    Mass=  207.20        Charge= 0.17977+309
Lmxo=2 Lmxkb= 3    BasisType=split      Semic=T
L=0  Nsemic=0  Cnfigmx=6
          i=1  nzeta=2  polorb=0  (6s)
            splnorm:   0.15000    
               vcte:    40.000    
               rinn:  -0.90000    
               qcoe:    0.0000    
               qyuk:    0.0000    
               qwid:   0.10000E-01
                rcs:    0.0000      0.0000    
            lambdas:    1.0000      1.0000    
L=1  Nsemic=0  Cnfigmx=6
          i=1  nzeta=2  polorb=0  (6p)  (to be polarized non-perturbatively)
            splnorm:   0.15000    
               vcte:    40.000    
               rinn:  -0.90000    
               qcoe:    0.0000    
               qyuk:    0.0000    
               qwid:   0.10000E-01
                rcs:    0.0000      0.0000    
            lambdas:    1.0000      1.0000    
L=2  Nsemic=1  Cnfigmx=6
          i=1  nzeta=1  polorb=0  (5d)  (semicore shell)
            splnorm:   0.15000    
               vcte:    40.000    
               rinn:  -0.90000    
               qcoe:    0.0000    
               qyuk:    0.0000    
               qwid:   0.10000E-01
                rcs:    0.0000    
            lambdas:    1.0000    
          i=2  nzeta=1  polorb=0  (6d)  (non-perturbative polarization shell)
            splnorm:   0.15000    
               vcte:    40.000    
               rinn:  -0.90000    
               qcoe:    0.0000    
               qyuk:    0.0000    
               qwid:   0.10000E-01
                rcs:    0.0000    
            lambdas:    1.0000    
-------------------------------------------------------------------------------
L=0  Nkbl=1  erefs: 0.17977+309
L=1  Nkbl=1  erefs: 0.17977+309
L=2  Nkbl=2  erefs: 0.17977+309 0.17977+309
L=3  Nkbl=1  erefs: 0.17977+309
===============================================================================
</basis_specs>

Using PAO.SplitTailNorm
atom: Called for Pb                    (Z =  82)
Maximum radius (at nrval) set to   50.00000 8518

read_vps: Pseudopotential generation method:
read_vps: ONCVPSP-4.Hamann's oncvpsp                        
Valence charge in pseudo generation:   14.00000

read_vps: Pseudopotential includes a core correction:
read_vps: Pseudo-core for xc-correction

xc_check: Exchange-correlation functional:
xc_check: Ceperley-Alder
xc_check: WARNING: Pseudopotential generated with GGA PBE functional
Got Vlocal (oncv-fit) from psml data
Choosing vlocal chloc cutoff:  5.523551
qtot up to nchloc:   14.00002938
atom: Maximum radius for chlocal:    5.52355
atom: Maximum radius for r*vlocal+2*Zval:    5.52355
Reading KB projs from Pb psml data
Using scalar-relativistic projectors in PSML file

PSML: Kleinman-Bylander projectors: 
   l= 0   rc=  2.173283   Ekb= 23.260430
   l= 0   rc=  2.173283   Ekb=  7.418094
   l= 0   rc=  2.173283   Ekb=  1.682355
   l= 1   rc=  2.173283   Ekb=  1.682355
   l= 1   rc=  0.000010   Ekb=  0.000000
   l= 2   rc=  0.000010   Ekb=  0.000000
   l= 2   rc=  2.570104   Ekb= 11.442339
   l= 3   rc=  2.570104   Ekb=  1.471636

PSML: Total number of  Kleinman-Bylander projectors:  26
atom: -------------------------------------------------------------------------

atom: SANKEY-TYPE ORBITALS:
atom: Selected multiple-zeta basis: split     

SPLIT: Orbitals with angular momentum L= 0

SPLIT: Basis orbitals for state 6s

SPLIT: PAO cut-off radius determined from an
SPLIT: energy shift=  0.010000 Ry
Split based on tail norm

   izeta = 1
                 lambda =    1.000000
                     rc =    5.446621
                 energy =   -0.896710
                kinetic =    0.595170
    potential(screened) =   -1.491880
       potential(ionic) =  -12.760498

   izeta = 2
                 rmatch =    3.936503
              splitnorm =    0.150000
                 energy =   -0.452897
                kinetic =    1.424386
    potential(screened) =   -1.877283
       potential(ionic) =  -13.998376

SPLIT: Orbitals with angular momentum L= 1

SPLIT: Basis orbitals for state 6p

SPLIT: PAO cut-off radius determined from an
SPLIT: energy shift=  0.010000 Ry
Split based on tail norm

   izeta = 1
                 lambda =    1.000000
                     rc =    7.534583
                 energy =   -0.265508
                kinetic =    0.608614
    potential(screened) =   -0.874122
       potential(ionic) =   -9.757979

   izeta = 2
                 rmatch =    5.590354
              splitnorm =    0.150000
                 energy =   -0.164753
                kinetic =    0.943445
    potential(screened) =   -1.108198
       potential(ionic) =  -11.211506

SPLIT: Orbitals with angular momentum L= 2

SPLIT: Basis orbitals for state 5d

SPLIT: PAO cut-off radius determined from an
SPLIT: energy shift=  0.010000 Ry
Split based on tail norm

   izeta = 1
                 lambda =    1.000000
                     rc =    3.699250
                 energy =   -1.533113
                kinetic =    6.756705
    potential(screened) =   -8.289817
       potential(ionic) =  -23.254458

SPLIT: Basis orbitals for state 6d
SPLIT: Non-perturbative polarization orbs for state 6p
SPLIT: rc(1st zeta) (re)set to: 7.5346 (expansion factor: 1.0000)
Split based on tail norm

   izeta = 1
                 lambda =    1.000000
                     rc =    7.534583
                 energy =    0.269477
                kinetic =    0.992707
    potential(screened) =   -0.723230
       potential(ionic) =   -7.324747
atom: Total number of Sankey-type orbitals: 18

atm_pop: Valence configuration (for local Pseudopot. screening):
 6s( 2.00)                                                            
 6p( 2.00)                                                            
 5d(10.00) 6d( 0.00)                                                  
Vna: chval, zval:   14.00000  14.00000

Vna:  Cut-off radius for the neutral-atom potential:   7.534583
comcore: Pseudo-core radius Rcore=  3.390185

atom: _________________________________________________________________________

prinput: Basis input 

PAO.BasisType split     

%block ChemicalSpeciesLabel
    1   22 Ti                      # Species index, atomic number, species label
    2   40 Zr                      # Species index, atomic number, species label
    3   82 Pb                      # Species index, atomic number, species label
%endblock ChemicalSpeciesLabel

%block PAO.Basis                 # Define Basis set
# WARNING: This information might be incomplete!
Ti                    5                    # Species label, number of l-shells
 n=3   0   1                         # n, l, Nzeta 
   2.856   
   1.000   
 n=4   0   2                         # n, l, Nzeta 
   7.550      5.658   
   1.000      1.000   
 n=3   1   1                         # n, l, Nzeta 
   3.202   
   1.000   
 n=4   1   1                         # n, l, Nzeta 
   7.550   
   1.000   
 n=3   2   2                         # n, l, Nzeta 
   5.307      3.525   
   1.000      1.000   
Zr                    5                    # Species label, number of l-shells
 n=4   0   1                         # n, l, Nzeta 
   3.183   
   1.000   
 n=5   0   2                         # n, l, Nzeta 
   7.827      5.919   
   1.000      1.000   
 n=4   1   1                         # n, l, Nzeta 
   3.655   
   1.000   
 n=5   1   1                         # n, l, Nzeta 
   7.827   
   1.000   
 n=4   2   2                         # n, l, Nzeta 
   6.217      4.360   
   1.000      1.000   
Pb                    4                    # Species label, number of l-shells
 n=6   0   2                         # n, l, Nzeta 
   5.447      3.937   
   1.000      1.000   
 n=6   1   2                         # n, l, Nzeta 
   7.535      5.590   
   1.000      1.000   
 n=5   2   1                         # n, l, Nzeta 
   3.699   
   1.000   
 n=6   2   1                         # n, l, Nzeta 
   7.535   
   1.000   
%endblock PAO.Basis

prinput: ----------------------------------------------------------------------

Dumping basis to NetCDF file Ti.ion.nc
Dumping basis to NetCDF file Zr.ion.nc
Dumping basis to NetCDF file Pb.ion.nc
coor:   Atomic-coordinates input format  =     Cartesian coordinates
coor:                                          (in Angstroms)

siesta: Atomic coordinates (Bohr) and species
siesta:     -1.43105  -1.43106  -1.43099  1        1
siesta:      2.53262   2.53261   2.53271  2        2
siesta:      4.51406   4.51406   4.51409  3        3

siesta: System type = bulk      

initatomlists: Number of atoms, orbitals, and projectors:      3    56    62

siesta: ******************** Simulation parameters ****************************
siesta:
siesta: The following are some of the parameters of the simulation.
siesta: A complete list of the parameters used, including default values,
siesta: can be found in file out.fdf
siesta:
redata: Spin configuration                          = none
redata: Number of spin components                   = 1
redata: Time-Reversal Symmetry                      = T
redata: Spin spiral                                 = F
redata: Long output                                 =   F
redata: Number of Atomic Species                    =        3
redata: Charge density info will appear in .RHO file
redata: Write Mulliken charges (when)               = none
redata: Write Mulliken Pop.                         = NO
redata: Write Hirshfeld charges (when)              = none
redata: Write Voronoi charges (when)                = none
redata: Write spin charge (when)                    = none
redata: Matel table size (NRTAB)                    =     1024
redata: Mesh Cutoff                                 =   300.0000 Ry
redata: Net charge of the system                    =     0.0000 |e|
redata: Min. number of SCF Iter                     =        0
redata: Max. number of SCF Iter                     =     1000
redata: SCF convergence failure will abort job
redata: SCF mix quantity                            = Hamiltonian
redata: Mix DM or H after convergence               =   F
redata: Recompute H after scf cycle                 =   F
redata: Mix DM in first SCF step                    =   T
redata: Write Pulay info on disk                    =   F
redata: New DM Occupancy tolerance                  = 0.000000000001
redata: No kicks to SCF
redata: DM Mixing Weight for Kicks                  =     0.5000
redata: Require Harris convergence for SCF          =   F
redata: Harris energy tolerance for SCF             =     0.000100 eV
redata: Require DM convergence for SCF              =   T
redata: DM tolerance for SCF                        =     0.000100
redata: Require EDM convergence for SCF             =   F
redata: EDM tolerance for SCF                       =     0.001000 eV
redata: Require H convergence for SCF               =   T
redata: Hamiltonian tolerance for SCF               =     0.001000 eV
redata: Require (free) Energy convergence for SCF   =   F
redata: (free) Energy tolerance for SCF             =     0.000100 eV
redata: Using DFT-D3 dispersion                     =   F
redata: Using Saved Data (generic)                  =   F
redata: Use continuation files for DM               =   T
redata: Neglect nonoverlap interactions             =   F
redata: Method of Calculation                       = Diagonalization
redata: Electronic Temperature                      =   300.0000 K
redata: Fix the spin of the system                  =   F
redata: Max. number of TDED Iter                    =        1
redata: Number of TDED substeps                     =        3
redata: Dynamics option                             = Single-point calculation
mix.SCF: Pulay mixing                            = Pulay
mix.SCF:    Variant                              = stable
mix.SCF:    History steps                        = 2
mix.SCF:    Linear mixing weight                 =     0.250000
mix.SCF:    Mixing weight                        =     0.250000
mix.SCF:    SVD condition                        = 0.1000E-07
redata: Save all siesta data in one NC              =   F
redata: ***********************************************************************

%block SCF.Mixers
  Pulay
%endblock SCF.Mixers

%block SCF.Mixer.Pulay
  # Mixing method
  method pulay
  variant stable

  # Mixing options
  weight 0.2500
  weight.linear 0.2500
  history 2
%endblock SCF.Mixer.Pulay

DM_history_depth set to one: no extrapolation allowed by default for geometry relaxation
Size of DM history Fstack: 1
Total number of electrons:    38.000000
Total ionic charge:    38.000000

siesta: k-grid: Number of k-points = 1
siesta: k-point is Gamma-only

diag: Algorithm                                     = D&C
diag: Used triangular part                          = Lower
diag: Absolute tolerance                            =  0.100E-15
diag: Orthogonalization factor                      =  0.100E-05
diag: Memory factor                                 =  1.0000

superc: Internal auxiliary supercell:     9 x     9 x     9  =     729
superc: Number of atoms, orbitals, and projectors:   2187  40824  45198


ts: **************************************************************
ts: Save H and S matrices                           =    F
ts: Save TSHS files in MD/FC simulation             =    F
ts: Save DM and EDM matrices                        =    F
ts: Only save the overlap matrix S                  =    F
ts: **************************************************************

************************ Begin: TS CHECKS AND WARNINGS ************************
************************ End: TS CHECKS AND WARNINGS **************************


                     ====================================
                        Single-point calculation
                     ====================================

superc: Internal auxiliary supercell:     9 x     9 x     9  =     729
superc: Number of atoms, orbitals, and projectors:   2187  40824  45198

outcell: Unit cell vectors (Ang):
        0.000140    2.097220    2.097224
        2.097217    0.000140    2.097225
        2.097227    2.097230    0.000130

outcell: Cell vector modules (Ang)   :    2.965920    2.965918    2.965929
outcell: Cell angles (23,13,12) (deg):     59.9958     59.9957     59.9955
outcell: Cell volume (Ang**3)        :     18.4468
<dSpData1D:S at geom step 0
  <sparsity:sparsity for geom step 0
    nrows_g=56 nrows=56 sparsity=101.3795 nnzs=317926, refcount: 7>
  <dData1D:(new from dSpData1D) n=317926, refcount: 1>
refcount: 1>
new_DM -- step:     1
Initializing Density Matrix...

Attempting to read DM from file... Failed...
DM filled with atomic data:
<dSpData2D:DM initialized from atoms
  <sparsity:sparsity for geom step 0
    nrows_g=56 nrows=56 sparsity=101.3795 nnzs=317926, refcount: 8>
  <dData2D:DM n=317926 m=1, refcount: 1>
refcount: 1>
No. of atoms with KB's overlaping orbs in proc 0. Max # of overlaps:     165    1170

InitMesh: MESH = 30 x 30 x 30 = 27000
InitMesh: Mesh cutoff (required, used) =   300.000   424.119 Ry
New grid distribution [1]: sub = 2

stepf: Fermi-Dirac step function

siesta: Program's energy decomposition (eV):
siesta: Ebs     =     -1183.497801
siesta: Eions   =      6754.674477
siesta: Ena     =       855.580421
siesta: Ekin    =      2224.882604
siesta: Enl     =       145.720323
siesta: Eso     =         0.000000
siesta: Edftu   =         0.000000
siesta: DEna    =       -55.427895
siesta: DUscf   =       102.510348
siesta: DUext   =         0.000000
siesta: Ex      =     -1033.700868
siesta: Ec      =      -100.365805
siesta: Exc     =     -1134.066673
siesta: EbV     =         0.000000
siesta: eta*DQ  =         0.000000
siesta: Emadel  =         0.000000
siesta: Emeta   =         0.000000
siesta: Emolmec =         0.000000
siesta: Ekinion =         0.000000
siesta: Eharris =     -5347.257947
siesta: Etot    =     -4615.475349
siesta: FreeEng =     -4615.574079

        iscf     Eharris(eV)        E_KS(eV)     FreeEng(eV)     dDmax    Ef(eV) dHmax(eV)
   scf:    1    -5347.257947    -4615.475349    -4615.574079437.660634 -7.649457 26.231030
timer: Routine,Calls,Time,% = IterSCF        1       2.103  11.93
   scf:    2    -4669.287275    -4648.595312    -4648.694179 67.499008 -5.048046 14.119846
   scf:    3    -4640.945705    -4651.440339    -4651.538850165.708617 -3.565079  6.921796
   scf:    4    -4645.600347    -4654.799014    -4654.897211167.141862 -4.144183  6.071612
   scf:    5    -4639.984878    -4653.193564    -4653.291190168.296636 -3.680409  4.915527
   scf:    6    -4647.910557    -4655.837594    -4655.936200167.607662 -3.795159  4.348158
   scf:    7    -4656.929375    -4656.404292    -4656.510625  5.281243 -3.574253  3.320378
   scf:    8    -4636.292819    -4652.322615    -4652.413385164.194060 -2.872513  7.273716
   scf:    9    -4654.459138    -4653.574291    -4653.676189  5.751783 -3.343778  5.345383
   scf:   10    -4639.049886    -4653.554947    -4653.560486164.915283 -4.326948  6.902036
   scf:   11    -4655.332397    -4655.632864    -4655.713197 10.104589 -3.764339  4.563730
   scf:   12    -4632.221788    -4651.628628    -4651.643847167.804106 -3.083628  7.144145
   scf:   13    -4647.890258    -4655.953640    -4656.026761167.741310 -3.416674  3.333182
   scf:   14    -4653.706637    -4656.958176    -4657.052084 76.598350 -3.248412  1.150421
   scf:   15    -4651.935191    -4655.995016    -4656.090375 37.961212 -3.266798  3.015208
   scf:   16    -4649.630813    -4655.486523    -4655.529556114.400598 -3.431098  3.684403
   scf:   17    -4653.452168    -4655.837884    -4655.883943 14.060524 -3.279132  2.836211
   scf:   18    -4635.615598    -4652.287683    -4652.357719162.449730 -2.999949  7.128320
   scf:   19    -4657.102761    -4655.206130    -4655.292125 36.624987 -3.262792  3.745021
   scf:   20    -4644.077401    -4654.875087    -4654.878752130.497166 -3.568494  4.328221
   scf:   21    -4656.784304    -4656.036460    -4656.118110  5.625591 -3.428302  3.505209
   scf:   22    -4633.747063    -4651.897702    -4651.961506167.727528 -2.910554  7.528575
   scf:   23    -4658.917341    -4656.660500    -4656.775488 64.958978 -3.257967  2.353991
   scf:   24    -4646.832551    -4655.140966    -4655.151776102.669706 -3.400693  3.554100
   scf:   25    -4655.990185    -4656.147877    -4656.226969  7.579710 -3.320902  3.070371
   scf:   26    -4632.194577    -4651.404947    -4651.419551166.855714 -2.956513  7.300672
   scf:   27    -4654.242411    -4653.269205    -4653.358138  6.879962 -3.231969  5.650256
   scf:   28    -4639.236513    -4653.723465    -4653.724818165.281945 -4.082879  6.555995
   scf:   29    -4655.904990    -4655.789564    -4655.878179  8.959209 -3.664750  4.384705
   scf:   30    -4632.674780    -4651.708801    -4651.740383167.670942 -3.019885  7.224456
   scf:   31    -4648.170021    -4656.273277    -4656.365678167.843828 -3.372994  3.250708
   scf:   32    -4655.845419    -4657.377105    -4657.502380 75.878977 -3.236848  1.093788
   scf:   33    -4654.648812    -4656.942444    -4657.038499 11.041979 -3.254281  1.129605
   scf:   34    -4652.888171    -4656.305515    -4656.402172 78.813212 -3.380069  3.425825
   scf:   35    -4650.396937    -4656.125624    -4656.204752105.811912 -3.281259  2.508207
   scf:   36    -4654.549330    -4657.137056    -4657.237478 42.468692 -3.280845  0.967593
   scf:   37    -4651.169538    -4655.917263    -4655.984979 62.982959 -3.373595  3.404107
   scf:   38    -4638.775471    -4652.808582    -4652.856744164.058904 -3.258598  5.619213
   scf:   39    -4647.256605    -4655.992936    -4656.036691150.221064 -3.284036  2.338964
   scf:   40    -4654.484803    -4656.345137    -4656.431360 12.384730 -3.311274  2.909926
   scf:   41    -4637.143944    -4652.455290    -4652.539659163.653923 -2.991256  7.025657
   scf:   42    -4653.434268    -4653.569655    -4653.647705  9.686043 -3.268506  5.266993
   scf:   43    -4640.862391    -4654.273073    -4654.284855158.925493 -3.880830  5.960679
   scf:   44    -4655.763700    -4655.749875    -4655.825123  9.004890 -3.586216  4.135363
   scf:   45    -4631.801965    -4651.482134    -4651.485385167.667140 -3.015883  7.247360
   scf:   46    -4648.482816    -4656.122213    -4656.202562167.826709 -3.333581  3.131928
   scf:   47    -4640.492411    -4653.764385    -4653.825079150.772769 -3.230077  4.933803
   scf:   48    -4650.570818    -4656.589407    -4656.691521146.150183 -3.275556  2.695561
   scf:   49    -4654.785203    -4657.093959    -4657.205807 77.575828 -3.255196  1.334166
   scf:   50    -4646.921328    -4654.080687    -4654.145854 64.597055 -3.255559  4.630606
   scf:   51    -4648.885748    -4655.659846    -4655.709378146.077837 -3.363148  3.538136
   scf:   52    -4652.977286    -4655.677379    -4655.719879 14.721676 -3.292539  3.032820
   scf:   53    -4634.157742    -4652.058628    -4652.117175165.581852 -2.978487  7.187113
   scf:   54    -4656.715557    -4654.681442    -4654.767060 26.613561 -3.254632  4.277838
   scf:   55    -4642.982525    -4654.684003    -4654.688541140.910772 -3.697216  4.737427
   scf:   56    -4656.805886    -4656.073777    -4656.163953  6.567578 -3.483478  3.698447
   scf:   57    -4633.453866    -4651.766364    -4651.812264167.832962 -2.897814  7.449500
   scf:   58    -4652.059909    -4656.996354    -4657.103044145.771442 -3.263020  1.765873
   scf:   59    -4639.273981    -4652.891493    -4652.954119143.728988 -3.235990  5.670452
   scf:   60    -4657.972178    -4657.435572    -4657.556767100.000117 -3.270934  0.563979
   scf:   61    -4653.615263    -4656.673819    -4656.756733 21.559242 -3.301575  1.513982
   scf:   62    -4652.585740    -4656.093003    -4656.172976 87.029827 -3.357000  3.294039
   scf:   63    -4647.206525    -4655.503825    -4655.570186118.824313 -3.286409  3.089182
   scf:   64    -4655.944883    -4657.546293    -4657.673033 71.398050 -3.295383  0.574407
   scf:   65    -4656.154952    -4657.294673    -4657.407994  8.873488 -3.310525  1.027251
   scf:   66    -4642.232981    -4653.143012    -4653.234193127.439279 -3.232912  5.866149
   scf:   67    -4654.375893    -4656.867237    -4656.944013110.973096 -3.315989  1.241442
   scf:   68    -4650.599297    -4655.821694    -4655.868346 50.235786 -3.329284  3.019912
   scf:   69    -4638.326812    -4652.449935    -4652.488741160.817019 -3.233043  5.913810
   scf:   70    -4651.036820    -4656.656562    -4656.722512128.713388 -3.289349  1.362423
   scf:   71    -4652.516299    -4656.084265    -4656.156239 35.573916 -3.344939  3.153072
   scf:   72    -4637.340096    -4652.362873    -4652.413507164.576160 -3.132889  6.382693
   scf:   73    -4655.096795    -4656.412656    -4656.487679 73.876291 -3.292661  1.802533
   scf:   74    -4646.840157    -4655.210974    -4655.229157 92.594374 -3.444359  3.872314
   scf:   75    -4657.633443    -4656.679039    -4656.770387 15.011151 -3.306069  2.235047
   scf:   76    -4637.510945    -4652.487265    -4652.549356151.514026 -3.104630  6.611241
   scf:   77    -4655.559600    -4654.643830    -4654.718992 27.660321 -3.290248  4.140428
   scf:   78    -4642.661272    -4654.614470    -4654.615237139.259485 -3.661925  4.884623
   scf:   79    -4656.618781    -4655.736043    -4655.801838  5.188423 -3.485654  3.750039
   scf:   80    -4630.169672    -4651.024606    -4651.028455167.432854 -2.896870  7.768915
   scf:   81    -4658.615827    -4657.023041    -4657.122924 90.702254 -3.266856  0.997708
   scf:   82    -4650.700884    -4656.069867    -4656.111649 58.116520 -3.278933  2.164338
   scf:   83    -4651.985084    -4656.040948    -4656.139385 96.916800 -3.281328  2.919825
   scf:   84    -4649.267127    -4656.018966    -4656.067687103.199610 -3.299605  2.545769
   scf:   85    -4656.219978    -4656.571630    -4656.675492 10.662008 -3.324886  2.901802
   scf:   86    -4636.120921    -4652.278403    -4652.353963163.560520 -2.982990  7.090010
   scf:   87    -4653.460888    -4653.301685    -4653.394003  7.919935 -3.243022  5.657490
   scf:   88    -4640.705288    -4654.187063    -4654.222005166.021398 -3.990132  6.485699
   scf:   89    -4655.240619    -4655.483399    -4655.540155 10.923830 -3.645999  4.564949
   scf:   90    -4631.509021    -4651.521761    -4651.522911167.598247 -3.034742  7.370415
   scf:   91    -4648.603301    -4656.096490    -4656.174447167.761091 -3.366201  3.257377
   scf:   92    -4649.670041    -4656.112032    -4656.203957109.833483 -3.235555  2.822867
   scf:   93    -4651.569838    -4656.572972    -4656.664453 98.000766 -3.269867  2.299378
   scf:   94    -4654.553647    -4657.141887    -4657.280071 87.383838 -3.261758  2.162278
   scf:   95    -4655.915437    -4657.264899    -4657.370912 44.094018 -3.274012  0.628134
   scf:   96    -4650.771758    -4655.721848    -4655.771648 53.503915 -3.335023  3.168738
   scf:   97    -4639.141956    -4652.939113    -4653.009725165.313848 -3.238878  5.853979
   scf:   98    -4653.428973    -4657.013754    -4657.101682119.453989 -3.262427  0.880430
   scf:   99    -4652.114666    -4656.031449    -4656.100769 45.396423 -3.332235  3.154067
   scf:  100    -4637.958316    -4652.584780    -4652.643230165.510484 -3.185897  6.106681
   scf:  101    -4653.791090    -4656.873412    -4656.949414106.254605 -3.283028  1.004867
   scf:  102    -4650.275715    -4655.734402    -4655.784831 59.784693 -3.337859  3.298216
   scf:  103    -4637.984476    -4652.538801    -4652.583556165.495859 -3.233345  5.849122
   scf:  104    -4649.164699    -4656.397514    -4656.460694143.970007 -3.276846  1.898025
   scf:  105    -4654.300591    -4656.428246    -4656.515755 15.897291 -3.309263  2.769351
   scf:  106    -4637.449273    -4652.374574    -4652.444750160.688224 -3.043886  6.780171
   scf:  107    -4654.404252    -4654.354383    -4654.440850 19.560884 -3.286984  4.666189
   scf:  108    -4642.899314    -4654.664496    -4654.690401147.973918 -3.763359  5.427847
   scf:  109    -4655.228795    -4655.745780    -4655.815572  8.894350 -3.523316  3.896688
   scf:  110    -4631.641199    -4651.464606    -4651.467480167.674997 -3.027851  7.197087
   scf:  111    -4649.098461    -4656.181530    -4656.262910167.371675 -3.305132  3.021459
   scf:  112    -4637.736170    -4652.993241    -4653.047501161.658970 -3.233777  5.556379
   scf:  113    -4653.173340    -4657.113245    -4657.229769141.987530 -3.265969  1.893751
   scf:  114    -4649.840195    -4655.841465    -4655.937029 99.024216 -3.262980  3.179464
   scf:  115    -4655.628077    -4656.413035    -4656.541260 10.851604 -3.267571  3.016177
   scf:  116    -4648.705360    -4655.735583    -4655.821811116.433052 -3.657250  4.679807
   scf:  117    -4656.596498    -4656.237654    -4656.332072  4.458969 -3.414274  3.445034
   scf:  118    -4630.974868    -4650.890848    -4650.903108167.910469 -2.764021  8.019222
   scf:  119    -4653.154105    -4653.088764    -4653.172484 11.742236 -3.221240  5.754493
   scf:  120    -4638.846278    -4653.785550    -4653.792307166.521711 -4.044797  6.555918
   scf:  121    -4655.950578    -4655.683580    -4655.761419  9.724202 -3.653197  4.368026
   scf:  122    -4631.425993    -4651.389261    -4651.390869167.458788 -2.998856  7.337029
   scf:  123    -4648.521870    -4656.114033    -4656.196008167.635968 -3.355060  3.201774
   scf:  124    -4643.412648    -4654.548668    -4654.620320139.192033 -3.228167  4.343201
   scf:  125    -4650.370811    -4656.483119    -4656.581942137.064242 -3.280592  2.831656
   scf:  126    -4655.974715    -4657.327506    -4657.448395 72.862862 -3.251488  0.989241
   scf:  127    -4647.503297    -4654.419862    -4654.484090 65.432296 -3.253952  4.272015
   scf:  128    -4650.088062    -4655.974273    -4656.042704139.877517 -3.334672  3.376526
   scf:  129    -4653.081097    -4655.816121    -4655.854990 12.121600 -3.286204  2.548317
   scf:  130    -4633.701302    -4651.850029    -4651.893490158.504768 -2.986123  7.095658
   scf:  131    -4656.237277    -4654.231449    -4654.306378 21.231332 -3.260621  4.517557
   scf:  132    -4642.033482    -4654.542436    -4654.549615146.366752 -3.789994  4.997125
   scf:  133    -4656.903099    -4656.092471    -4656.186785  6.224237 -3.520038  3.811885
   scf:  134    -4634.684965    -4652.042401    -4652.112278167.807666 -2.879634  7.512751
   scf:  135    -4649.486634    -4656.545615    -4656.635299157.696805 -3.266031  2.409193
   scf:  136    -4638.670960    -4653.017855    -4653.094312156.608704 -3.216889  5.772126
   scf:  137    -4656.184198    -4657.357327    -4657.472469119.235008 -3.267497  0.560438
   scf:  138    -4650.200232    -4655.789212    -4655.863941 66.542613 -3.269957  2.809135
   scf:  139    -4653.757294    -4656.664950    -4656.760022 99.818661 -3.302155  2.372504
   scf:  140    -4652.098864    -4656.565701    -4656.648652 77.283553 -3.302423  1.732879
   scf:  141    -4649.382654    -4654.398045    -4654.508692 61.655332 -3.277561  4.880479
   scf:  142    -4646.682839    -4655.253056    -4655.276049152.848532 -3.424843  3.792368
   scf:  143    -4654.173132    -4655.951380    -4656.019510 12.681924 -3.360677  3.390559
   scf:  144    -4635.664845    -4652.404341    -4652.487820167.719701 -2.982528  7.157513
   scf:  145    -4658.889941    -4657.143034    -4657.270287 76.269863 -3.272076  1.728358
   scf:  146    -4650.684914    -4656.034671    -4656.105254 90.626633 -3.335769  3.268249
   scf:  147    -4657.994475    -4657.279852    -4657.393204 36.473307 -3.293525  1.094629
   scf:  148    -4648.782373    -4655.432555    -4655.525075 91.790622 -3.331977  3.592969
   scf:  149    -4654.712890    -4656.899135    -4656.993417 97.631034 -3.314812  1.479426
   scf:  150    -4648.767087    -4655.656563    -4655.731744 86.469398 -3.288564  2.932630
   scf:  151    -4654.627053    -4656.952229    -4657.058164 96.169488 -3.322018  1.999376
   scf:  152    -4653.230830    -4656.782133    -4656.874822 65.163652 -3.326037  1.455887
   scf:  153    -4649.104718    -4654.397971    -4654.509845 66.822477 -3.295267  4.867691
   scf:  154    -4647.637692    -4655.614050    -4655.661189153.160720 -3.393597  3.611495
   scf:  155    -4654.245410    -4655.958653    -4656.026888 13.531177 -3.360093  3.321524
   scf:  156    -4635.292649    -4652.326727    -4652.404886167.591673 -2.979625  7.175823
   scf:  157    -4657.683998    -4655.394923    -4655.506259 33.324205 -3.274850  3.909865
   scf:  158    -4645.819836    -4655.229897    -4655.275566134.287634 -3.628803  4.427188
   scf:  159    -4655.540464    -4655.957572    -4656.036072  6.590598 -3.451338  3.565265
   scf:  160    -4631.976347    -4651.469351    -4651.477824167.777888 -3.004423  7.232457
   scf:  161    -4654.570149    -4657.276913    -4657.395703138.042263 -3.271175  1.384872
   scf:  162    -4640.454977    -4653.020846    -4653.085636134.878020 -3.254151  5.615673
   scf:  163    -4658.488329    -4657.377248    -4657.501183 89.714821 -3.281909  0.850350
   scf:  164    -4651.092450    -4655.697683    -4655.770132 41.236006 -3.291008  2.869408
   scf:  165    -4650.873639    -4655.850814    -4655.914985115.948202 -3.393349  3.537497
   scf:  166    -4653.327753    -4655.990447    -4656.032165 15.310301 -3.298545  2.303807
   scf:  167    -4634.931447    -4652.039753    -4652.087963152.313508 -3.030342  6.925316
   scf:  168    -4658.707527    -4656.303990    -4656.400476 60.390730 -3.285961  2.420934
   scf:  169    -4646.440511    -4655.207076    -4655.219049106.327175 -3.417291  3.554945
   scf:  170    -4656.918711    -4656.297713    -4656.388094  5.134884 -3.339710  3.079288
   scf:  171    -4635.504656    -4652.227276    -4652.302544166.329542 -2.912315  7.375167
   scf:  172    -4653.105411    -4652.949696    -4653.021270 10.150107 -3.236747  5.700525
   scf:  173    -4638.142111    -4653.682009    -4653.682334166.345816 -4.106869  6.648079
   scf:  174    -4657.179061    -4655.658796    -4655.738069  7.447965 -3.670837  4.413002
   scf:  175    -4629.726305    -4650.927819    -4650.939018167.734889 -2.771217  8.002151
   scf:  176    -4648.781119    -4656.321427    -4656.411941167.840579 -3.311201  3.108534
   scf:  177    -4637.567224    -4652.870401    -4652.945152167.618082 -3.173948  6.004872
   scf:  178    -4654.474283    -4657.405416    -4657.528932135.078984 -3.256965  1.239653
   scf:  179    -4651.315629    -4656.129075    -4656.243577 86.608134 -3.264635  3.141970
   scf:  180    -4658.130755    -4657.548142    -4657.688786 37.042784 -3.275940  1.228841
   scf:  181    -4653.466169    -4656.591464    -4656.672321 60.101502 -3.313288  2.009696
   scf:  182    -4656.138239    -4657.116532    -4657.226640 10.451741 -3.309389  1.656625
   scf:  183    -4638.908480    -4652.615635    -4652.690579139.927229 -3.113886  6.468632
   scf:  184    -4658.164583    -4656.128268    -4656.235238 51.209994 -3.302928  2.904753
   scf:  185    -4646.851973    -4655.298009    -4655.321806115.734750 -3.424914  3.673618
   scf:  186    -4655.269727    -4655.977525    -4656.045123  9.375815 -3.365811  3.368587
   scf:  187    -4633.224105    -4651.791992    -4651.828628167.462020 -2.991461  7.210086
   scf:  188    -4656.521793    -4654.448678    -4654.552579 17.086108 -3.268596  4.763200
   scf:  189    -4643.025174    -4654.454682    -4654.468796150.468114 -3.880313  5.401462
   scf:  190    -4654.264250    -4655.598904    -4655.658183  9.937547 -3.556167  4.019244
   scf:  191    -4632.488324    -4651.763353    -4651.779404167.642861 -3.079445  6.991463
   scf:  192    -4648.862636    -4656.213640    -4656.301370167.774856 -3.351906  3.175456
   scf:  193    -4651.671024    -4656.498440    -4656.585306 95.047073 -3.246927  2.062137
   scf:  194    -4654.556881    -4656.855002    -4656.962468 15.139785 -3.257848  1.771095
   scf:  195    -4650.908110    -4656.069913    -4656.160276 90.558741 -3.484156  3.897076
   scf:  196    -4656.479951    -4656.495676    -4656.572823 17.543803 -3.285416  2.093203
   scf:  197    -4634.546585    -4651.793351    -4651.804421149.845735 -3.105681  6.634041
   scf:  198    -4658.288161    -4655.596449    -4655.686499 43.792253 -3.282293  3.309541
   scf:  199    -4646.186501    -4655.329152    -4655.359275122.126342 -3.435538  3.700988
   scf:  200    -4656.200248    -4656.120704    -4656.198977  8.022939 -3.368307  3.280876
   scf:  201    -4633.526992    -4651.772882    -4651.806469167.463625 -2.970064  7.294909
   scf:  202    -4655.766569    -4654.422033    -4654.520271 18.489905 -3.259202  4.733458
   scf:  203    -4641.995857    -4654.386596    -4654.388365149.006160 -3.802202  5.424897
   scf:  204    -4656.540019    -4655.891191    -4655.974243  7.007917 -3.552353  3.977770
   scf:  205    -4631.727890    -4651.366967    -4651.378260167.745229 -2.957345  7.423342
   scf:  206    -4648.372773    -4656.187059    -4656.268279167.283635 -3.295706  2.982543
   scf:  207    -4636.733318    -4652.695985    -4652.747933165.538485 -3.212977  5.793959
   scf:  208    -4653.835453    -4657.207947    -4657.324320138.600056 -3.260731  1.492628
   scf:  209    -4648.870987    -4655.543762    -4655.625396 94.100319 -3.258631  3.268960
   scf:  210    -4657.927367    -4657.299391    -4657.438115 28.775861 -3.272899  1.784334
   scf:  211    -4649.028101    -4655.420002    -4655.453302 92.542998 -3.395506  3.546165
   scf:  212    -4655.366702    -4656.287550    -4656.374106 10.604512 -3.322117  2.943140
   scf:  213    -4633.318302    -4651.670214    -4651.703443164.419602 -2.973120  7.185195
   scf:  214    -4654.471528    -4653.317013    -4653.410970  4.860736 -3.240156  5.642467
   scf:  215    -4640.136059    -4653.851656    -4653.876245165.752791 -4.159165  6.799782
   scf:  216    -4655.357292    -4655.670950    -4655.750311 12.513140 -3.688751  4.467496
   scf:  217    -4634.221034    -4652.184460    -4652.247108167.526362 -3.060869  7.141777
   scf:  218    -4648.247496    -4656.121592    -4656.203488167.713925 -3.396177  3.338019
   scf:  219    -4656.055750    -4656.876034    -4656.966438 29.299849 -3.242471  1.321790
   scf:  220    -4636.435636    -4652.006113    -4652.028754138.151796 -3.129157  6.446774
   scf:  221    -4658.222351    -4656.871314    -4656.962903 88.553811 -3.265861  1.133724
   scf:  222    -4652.419197    -4656.614525    -4656.667248 25.987788 -3.280064  1.574865
   scf:  223    -4654.559671    -4656.374262    -4656.465429 49.615246 -3.327401  3.011061
   scf:  224    -4636.073490    -4652.328928    -4652.361261163.381348 -3.195298  6.091451
   scf:  225    -4657.444528    -4656.355750    -4656.468150 53.759158 -3.278947  2.913384
   scf:  226    -4645.821994    -4654.984566    -4654.989039112.867966 -3.478791  4.042625
   scf:  227    -4656.753648    -4656.267969    -4656.359065  5.880207 -3.377608  3.335112
   scf:  228    -4634.676760    -4651.997686    -4652.053582167.881653 -2.923242  7.393756
   scf:  229    -4653.595567    -4653.515619    -4653.598916  9.755049 -3.252077  5.332018
   scf:  230    -4639.674264    -4653.967820    -4653.969179160.227853 -3.925278  6.116862
   scf:  231    -4656.642446    -4655.760953    -4655.839464  7.020033 -3.608620  4.224424
   scf:  232    -4631.768887    -4651.350975    -4651.371367167.674949 -2.955569  7.562531
   scf:  233    -4647.675267    -4655.976953    -4656.043009167.663750 -3.302441  3.080634
   scf:  234    -4636.810161    -4652.788723    -4652.842976164.753281 -3.214108  5.701316
   scf:  235    -4649.962631    -4656.454680    -4656.549396160.602119 -3.274882  2.733823
   scf:  236    -4653.404094    -4656.817120    -4656.906173 77.284045 -3.248586  1.282358
   scf:  237    -4644.799347    -4653.319448    -4653.388767 78.582291 -3.242413  5.385836
   scf:  238    -4647.009266    -4655.285776    -4655.308239159.864011 -3.366811  3.582357
   scf:  239    -4653.661879    -4655.871659    -4655.931220 11.620636 -3.296515  3.177806
   scf:  240    -4634.850935    -4652.164028    -4652.231451167.185980 -2.971220  7.213799
   scf:  241    -4657.124102    -4655.048726    -4655.152421 28.837818 -3.250394  4.188924
   scf:  242    -4644.758021    -4655.049699    -4655.082725138.709783 -3.652769  4.795082
   scf:  243    -4656.225118    -4656.040212    -4656.125562  8.276237 -3.466398  3.643276
   scf:  244    -4632.045734    -4651.389425    -4651.395428167.683826 -2.967497  7.350669
   scf:  245    -4652.810384    -4657.008276    -4657.115564144.768180 -3.262072  1.709716
   scf:  246    -4637.803594    -4652.468875    -4652.505090143.482460 -3.226823  5.747841
   scf:  247    -4658.782050    -4657.394727    -4657.520309 91.011797 -3.269332  0.898575
   scf:  248    -4652.863990    -4656.282271    -4656.365070 27.137263 -3.298265  2.226478
   scf:  249    -4651.031724    -4655.708298    -4655.766294102.588070 -3.404973  3.564017
   scf:  250    -4654.317500    -4656.545558    -4656.608340 32.009649 -3.283127  1.512590
   scf:  251    -4636.734834    -4652.138872    -4652.176709135.729374 -3.124181  6.477550
   scf:  252    -4652.859154    -4656.814336    -4656.907434145.622504 -3.306241  2.016972
   scf:  253    -4648.264031    -4655.557789    -4655.639427100.225255 -3.309072  3.275307
   scf:  254    -4656.389259    -4657.465760    -4657.589915 81.631162 -3.308501  1.050054
   scf:  255    -4647.670294    -4654.995662    -4655.072976 92.518275 -3.297274  3.765689
   scf:  256    -4656.712106    -4657.526713    -4657.653208 88.084041 -3.316917  0.870377
   scf:  257    -4652.628004    -4656.422516    -4656.515574 57.785677 -3.320579  2.212635
   scf:  258    -4657.775315    -4657.706159    -4657.842508 47.005272 -3.324561  0.322332
   scf:  259    -4650.140764    -4655.413693    -4655.521284 78.029448 -3.320104  3.776009
   scf:  260    -4655.981650    -4657.389471    -4657.510280 94.554053 -3.335418  1.163481
   scf:  261    -4653.785525    -4656.808291    -4656.895647 42.987546 -3.325040  1.110345
   scf:  262    -4652.064467    -4655.551364    -4655.677780 54.652635 -3.319224  3.930249
   scf:  263    -4647.194983    -4655.298667    -4655.325784136.703000 -3.430831  3.745367
   scf:  264    -4654.373601    -4656.012159    -4656.085251 11.076209 -3.386575  3.410153
   scf:  265    -4635.712941    -4652.426804    -4652.512672167.810864 -2.989275  7.156674
   scf:  266    -4658.589122    -4656.278087    -4656.400018 49.861380 -3.286184  3.043881
   scf:  267    -4647.390174    -4655.376547    -4655.413568117.706337 -3.487730  3.883134
   scf:  268    -4654.603851    -4655.822455    -4655.884866 10.730611 -3.383991  3.333163
   scf:  269    -4632.245641    -4651.604843    -4651.627595167.773459 -3.001163  7.186749
   scf:  270    -4659.255588    -4656.225574    -4656.342452 50.937498 -3.269616  3.032374
   scf:  271    -4648.302344    -4655.714473    -4655.775562116.813131 -3.473427  3.736972
   scf:  272    -4656.674311    -4656.334398    -4656.430548  4.239796 -3.360603  3.213005
   scf:  273    -4635.040607    -4652.046280    -4652.119472167.849361 -2.875906  7.535894
   scf:  274    -4652.710701    -4652.999471    -4653.075827  9.385775 -3.228161  5.730659
   scf:  275    -4638.508071    -4653.750688    -4653.751118166.286397 -4.040618  6.500935
   scf:  276    -4657.099299    -4655.724085    -4655.806755  7.191029 -3.651034  4.357596
   scf:  277    -4631.212364    -4651.297872    -4651.331496167.678716 -2.849369  7.840090
   scf:  278    -4648.541742    -4656.212010    -4656.294223167.825701 -3.314070  3.090070
   scf:  279    -4637.087481    -4652.786766    -4652.851336167.078170 -3.199430  5.893116
   scf:  280    -4651.316290    -4656.804992    -4656.912173155.774375 -3.264012  2.331685
   scf:  281    -4650.144679    -4656.040935    -4656.139958103.497685 -3.248592  2.966411
   scf:  282    -4655.640786    -4656.635015    -4656.758123  9.328682 -3.261613  2.589601
   scf:  283    -4648.633502    -4655.648604    -4655.720929107.533221 -3.592227  4.426939
   scf:  284    -4656.520211    -4656.225073    -4656.314712  4.228593 -3.373519  3.300190
   scf:  285    -4631.198047    -4650.965814    -4650.970700167.852035 -2.825377  7.806679
   scf:  286    -4653.193115    -4653.047393    -4653.129275 10.557401 -3.218127  5.791256
   scf:  287    -4639.490464    -4653.975511    -4653.988853166.815850 -4.030181  6.520183
   scf:  288    -4656.213451    -4655.754464    -4655.835356  9.786876 -3.646579  4.343800
   scf:  289    -4631.831945    -4651.463133    -4651.466447167.691248 -2.974739  7.496376
   scf:  290    -4648.123024    -4656.160296    -4656.244105167.875192 -3.351262  3.189077
   scf:  291    -4643.489084    -4654.539091    -4654.620868142.041300 -3.225871  4.482320
   scf:  292    -4649.726344    -4656.339334    -4656.429018140.111113 -3.279889  2.852401
   scf:  293    -4656.694577    -4657.310172    -4657.421172 47.625300 -3.254361  0.764430
   scf:  294    -4639.521152    -4652.405404    -4652.433627116.745031 -3.226059  5.862751
   scf:  295    -4652.567929    -4656.599758    -4656.679338145.272934 -3.279972  2.019331
   scf:  296    -4651.224003    -4656.389776    -4656.456234 68.935557 -3.280596  1.609201
   scf:  297    -4651.500862    -4655.164783    -4655.287015 52.851208 -3.275547  4.340328
   scf:  298    -4646.744111    -4655.264260    -4655.291896141.968430 -3.479421  4.000074
   scf:  299    -4654.076096    -4655.898982    -4655.966755 15.153325 -3.392943  3.476890
   scf:  300    -4634.496993    -4652.169642    -4652.233024167.838818 -2.996868  7.120178
   scf:  301    -4656.829486    -4657.559401    -4657.687029117.889591 -3.272419  0.532504
   scf:  302    -4648.414504    -4655.076403    -4655.154051 81.616200 -3.286762  3.749084
   scf:  303    -4654.819358    -4656.986402    -4657.088569103.254752 -3.300954  1.623682
   scf:  304    -4649.825605    -4655.914744    -4655.976644 77.921284 -3.296446  2.424028
   scf:  305    -4657.527193    -4657.025685    -4657.161970 15.364314 -3.298174  2.220290
   scf:  306    -4650.173587    -4655.934059    -4656.023173102.713343 -3.575138  4.247335
   scf:  307    -4656.629375    -4656.320863    -4656.417757  2.510438 -3.384686  3.311488
   scf:  308    -4633.269540    -4651.523921    -4651.594676167.928828 -2.736294  8.146378
   scf:  309    -4653.471732    -4653.006939    -4653.091459  8.756496 -3.199662  5.885836
   scf:  310    -4638.199119    -4653.601599    -4653.607224167.225779 -4.182863  6.891457
   scf:  311    -4656.367377    -4655.673097    -4655.753303 10.967070 -3.692316  4.472604
   scf:  312    -4631.498536    -4651.409732    -4651.413575167.612442 -2.940653  7.591404
   scf:  313    -4648.389643    -4656.200173    -4656.287755167.811109 -3.363611  3.224220
   scf:  314    -4641.264388    -4653.941130    -4654.017556151.612518 -3.230756  4.972752
   scf:  315    -4649.574894    -4656.392522    -4656.487379150.628523 -3.291286  2.929652
   scf:  316    -4657.194493    -4657.297857    -4657.410546 39.690241 -3.255685  0.856100
   scf:  317    -4638.723397    -4652.342275    -4652.366705125.848873 -3.224762  5.905915
   scf:  318    -4655.911292    -4657.054397    -4657.148081120.506673 -3.277349  1.053008
   scf:  319    -4649.702916    -4655.801602    -4655.858687 62.166723 -3.288425  2.522278
   scf:  320    -4652.790638    -4656.301450    -4656.384139101.853855 -3.319417  2.837649
   scf:  321    -4645.060095    -4654.900912    -4654.954422122.924237 -3.293016  3.676312
   scf:  322    -4658.311326    -4657.499779    -4657.639022 44.519248 -3.289193  1.342004
   scf:  323    -4650.928685    -4655.882839    -4655.948555 84.270383 -3.380264  3.374465
   scf:  324    -4657.239663    -4657.118689    -4657.234173 22.925460 -3.314061  1.869956
   scf:  325    -4637.514555    -4652.301211    -4652.343877144.322944 -3.177589  6.337155
   scf:  326    -4657.293892    -4655.141455    -4655.254794 26.783564 -3.294588  4.173464
   scf:  327    -4645.344277    -4654.984447    -4654.994485140.763948 -3.626431  4.763788
   scf:  328    -4654.237632    -4655.721457    -4655.781944 10.397835 -3.462703  3.654059
   scf:  329    -4632.909825    -4651.828624    -4651.857265167.753629 -3.046565  7.050704
   scf:  330    -4649.760376    -4656.373438    -4656.464746164.626246 -3.299621  2.838821
   scf:  331    -4638.280150    -4653.049388    -4653.102532158.120474 -3.251368  5.479217
   scf:  332    -4657.090861    -4657.684488    -4657.818958110.321432 -3.271205  0.387000
   scf:  333    -4651.681971    -4655.968707    -4656.079925 70.773599 -3.283010  3.232178
   scf:  334    -4658.162050    -4657.645664    -4657.781705 52.529103 -3.293506  0.579038
   scf:  335    -4653.536195    -4656.356355    -4656.472251 45.143062 -3.308656  2.797331
   scf:  336    -4651.152557    -4655.984925    -4656.049484110.818305 -3.340863  3.049778
   scf:  337    -4654.351155    -4656.688035    -4656.758826 33.083255 -3.295902  1.318230
   scf:  338    -4638.223373    -4652.413203    -4652.468255130.988271 -3.127368  6.421041
   scf:  339    -4651.468261    -4656.502290    -4656.580077150.586864 -3.319863  2.335735
   scf:  340    -4648.839775    -4655.831208    -4655.897011 92.968031 -3.302775  2.589176
   scf:  341    -4657.744165    -4657.757037    -4657.896933 48.176459 -3.307507  0.152706
   scf:  342    -4657.430749    -4657.661744    -4657.796610 15.415312 -3.324482  0.749015
   scf:  343    -4655.227955    -4657.077320    -4657.218492 57.430839 -3.315750  2.227878
   scf:  344    -4657.460626    -4657.641297    -4657.775211 39.823288 -3.327766  0.337551
   scf:  345    -4653.166352    -4656.434598    -4656.510510 45.813630 -3.345304  2.270610
   scf:  346    -4647.810511    -4655.121631    -4655.234274123.038751 -3.318608  4.157459
   scf:  347    -4652.157842    -4656.715637    -4656.792483108.725337 -3.311024  1.519179
   scf:  348    -4653.399564    -4656.148428    -4656.228056 31.356036 -3.364430  3.245020
   scf:  349    -4636.660104    -4652.211767    -4652.254481166.597980 -3.137031  6.439050
   scf:  350    -4655.950323    -4656.503113    -4656.597296 67.781634 -3.315210  2.141125
   scf:  351    -4647.638793    -4655.389818    -4655.426877 99.459168 -3.452442  3.921129
   scf:  352    -4656.321905    -4656.264897    -4656.346588  6.613410 -3.328362  2.941435
   scf:  353    -4632.730481    -4651.444914    -4651.454174164.027439 -2.980392  7.250235
   scf:  354    -4653.736470    -4653.163916    -4653.245511  7.834081 -3.250165  5.649482
   scf:  355    -4639.507719    -4653.904258    -4653.907633165.938866 -4.041704  6.497513
   scf:  356    -4656.384594    -4655.821919    -4655.909516  9.998097 -3.659184  4.367040
   scf:  357    -4632.994046    -4651.779701    -4651.800657167.724274 -2.973902  7.545209
   scf:  358    -4648.279825    -4656.307967    -4656.403263167.885302 -3.364714  3.215296
   scf:  359    -4648.234791    -4655.724858    -4655.842313128.865714 -3.236121  3.784492
   scf:  360    -4650.211825    -4656.302321    -4656.388657126.339717 -3.285167  2.837037
   scf:  361    -4657.352661    -4657.364559    -4657.485248 32.453313 -3.266502  1.123984
   scf:  362    -4638.798824    -4652.401091    -4652.439849132.271821 -3.208882  6.037287
   scf:  363    -4659.110370    -4656.961369    -4657.079338 73.652377 -3.280329  1.792756
   scf:  364    -4653.595007    -4656.851699    -4656.926705 44.589020 -3.294859  1.329300
   scf:  365    -4653.852276    -4656.331149    -4656.426079 48.690372 -3.369011  3.302270
   scf:  366    -4636.722994    -4652.404534    -4652.440638166.352699 -3.213146  6.025191
   scf:  367    -4654.960299    -4657.118587    -4657.216139 99.160715 -3.296306  0.926600
   scf:  368    -4650.751949    -4655.856028    -4655.914125 65.308870 -3.339196  3.282294
   scf:  369    -4639.682760    -4652.966043    -4653.013578160.197727 -3.272923  5.428579
   scf:  370    -4647.783635    -4656.105098    -4656.156883147.459301 -3.289840  2.336492
   scf:  371    -4654.536219    -4656.315459    -4656.402762 12.230269 -3.322694  3.011441
   scf:  372    -4636.809264    -4652.367225    -4652.444689165.087773 -2.998477  7.007552
   scf:  373    -4653.202322    -4653.559824    -4653.635633 11.293862 -3.270953  5.251260
   scf:  374    -4640.791038    -4654.274687    -4654.283728158.546064 -3.874853  5.945179
   scf:  375    -4656.226961    -4655.859431    -4655.942421  8.726809 -3.583981  4.120133
   scf:  376    -4632.109747    -4651.494322    -4651.500405167.741489 -2.986873  7.378035
   scf:  377    -4648.089708    -4656.145578    -4656.226930167.867834 -3.324037  3.094050
   scf:  378    -4638.511386    -4653.203827    -4653.262803159.568097 -3.224568  5.391837
   scf:  379    -4650.323782    -4656.568947    -4656.667295153.249139 -3.271088  2.606883
   scf:  380    -4654.660117    -4657.039928    -4657.139632 67.586780 -3.256460  1.068292
   scf:  381    -4643.320964    -4653.026438    -4653.082422 88.441325 -3.245196  5.525279
   scf:  382    -4648.017448    -4655.522859    -4655.555704160.474213 -3.336464  3.358637
   scf:  383    -4653.167877    -4655.881249    -4655.930666 16.735574 -3.278325  2.821864
   scf:  384    -4635.525793    -4652.288154    -4652.356328161.829811 -2.983270  7.120668
   scf:  385    -4657.037999    -4655.082535    -4655.169361 33.887409 -3.259029  3.875010
   scf:  386    -4643.836190    -4654.836152    -4654.840770133.408355 -3.596957  4.411728
   scf:  387    -4656.824400    -4656.073586    -4656.159245  5.937802 -3.440608  3.551951
   scf:  388    -4634.546698    -4652.105003    -4652.176615167.767946 -2.902414  7.497035
   scf:  389    -4658.579308    -4657.279361    -4657.400744 88.134085 -3.257592  1.169389
   scf:  390    -4649.572051    -4655.646771    -4655.677254 74.496840 -3.302773  2.882763
   scf:  391    -4655.858680    -4657.174492    -4657.296879 81.596287 -3.280573  1.460930
   scf:  392    -4651.258884    -4656.215020    -4656.267952 67.223053 -3.295031  2.138877
   scf:  393    -4657.956291    -4657.408223    -4657.533329 13.486594 -3.307481  1.367289
   scf:  394    -4640.591726    -4652.902071    -4652.977507134.714499 -3.194565  6.076443
   scf:  395    -4658.250443    -4656.563417    -4656.683812 58.473656 -3.302887  2.536215
   scf:  396    -4647.056323    -4655.248570    -4655.259322108.087857 -3.390829  3.528133
   scf:  397    -4656.481504    -4656.289247    -4656.379907  8.718442 -3.361300  3.228408
   scf:  398    -4635.532863    -4652.306514    -4652.382133167.530201 -2.958173  7.277355
   scf:  399    -4654.464465    -4653.491815    -4653.590270  7.501120 -3.253333  5.536096
   scf:  400    -4639.848677    -4653.906635    -4653.938230164.258763 -4.220462  6.808073
   scf:  401    -4655.625879    -4655.645477    -4655.727933 11.241465 -3.705344  4.472781
   scf:  402    -4631.124239    -4651.324829    -4651.328329167.573417 -3.025569  7.302707
   scf:  403    -4648.137827    -4655.998232    -4656.073729167.776812 -3.378263  3.270554
   scf:  404    -4648.905679    -4655.953369    -4656.037470111.480568 -3.236653  2.903185
   scf:  405    -4651.761719    -4656.612047    -4656.710552103.153003 -3.272136  2.480764
   scf:  406    -4650.799560    -4656.170034    -4656.291186111.526339 -3.257119  3.245208
   scf:  407    -4655.528509    -4656.985841    -4657.083816 42.128367 -3.263038  1.029852
   scf:  408    -4648.420478    -4655.377444    -4655.410163 77.532847 -3.411314  3.677517
   scf:  409    -4654.146713    -4656.707186    -4656.810723 95.343047 -3.279970  1.932988
   scf:  410    -4649.718834    -4655.961365    -4656.008595 84.647052 -3.287960  2.585181
   scf:  411    -4657.809218    -4657.455191    -4657.574769 41.292046 -3.295427  0.473483
   scf:  412    -4654.177695    -4656.893351    -4656.984887 28.733303 -3.328533  1.231867
   scf:  413    -4657.395382    -4657.510630    -4657.636126 32.838121 -3.318948  0.645723
   scf:  414    -4642.461249    -4653.273128    -4653.322521110.082860 -3.302118  5.109252
   scf:  415    -4653.373047    -4656.817295    -4656.912416134.179106 -3.329544  1.927667
   scf:  416    -4652.919914    -4656.712894    -4656.785884 52.809588 -3.315710  1.274183
   scf:  417    -4645.862702    -4653.526390    -4653.625781 88.188523 -3.280092  5.516875
   scf:  418    -4646.515756    -4655.440063    -4655.471773163.477518 -3.394943  3.538584
   scf:  419    -4654.081563    -4655.972485    -4656.041417 13.980213 -3.355477  3.328137
   scf:  420    -4635.809593    -4652.422309    -4652.505907167.644287 -2.980346  7.172254
   scf:  421    -4657.429899    -4655.415711    -4655.523652 34.675195 -3.276006  3.841864
   scf:  422    -4645.342683    -4655.085592    -4655.119772132.851372 -3.597141  4.443111
   scf:  423    -4655.077438    -4655.796145    -4655.861372  8.556690 -3.444068  3.570630
   scf:  424    -4631.968912    -4651.536098    -4651.544371167.667553 -3.020138  7.179241
   scf:  425    -4652.744503    -4656.858856    -4656.959916148.083899 -3.273669  1.924760
   scf:  426    -4638.383947    -4652.743737    -4652.788315144.781106 -3.250888  5.636320
   scf:  427    -4657.707558    -4657.376278    -4657.492981102.539827 -3.277461  0.741246
   scf:  428    -4649.534417    -4655.411035    -4655.474226 58.816479 -3.288527  3.146217
   scf:  429    -4650.967751    -4655.896473    -4655.959324119.799385 -3.343974  3.270765
   scf:  430    -4653.564581    -4656.707590    -4656.769680 53.061755 -3.286968  1.429735
   scf:  431    -4640.025473    -4652.568053    -4652.622754113.261068 -3.186392  6.094055
   scf:  432    -4648.428886    -4655.832358    -4655.888513164.722870 -3.357301  3.291842
   scf:  433    -4653.997585    -4656.559598    -4656.622814 30.644446 -3.279155  1.366784
   scf:  434    -4637.050083    -4652.209542    -4652.250720134.463028 -3.112681  6.478144
   scf:  435    -4653.490061    -4656.838309    -4656.925911139.586797 -3.299074  1.719406
   scf:  436    -4648.876283    -4655.712749    -4655.778433 85.207954 -3.302188  2.771900
   scf:  437    -4656.072698    -4657.388570    -4657.512480 79.851473 -3.310117  1.372887
   scf:  438    -4643.482745    -4653.838605    -4653.902903118.469138 -3.293412  4.796248
   scf:  439    -4658.228311    -4657.708830    -4657.847580 86.285671 -3.309048  0.305809
   scf:  440    -4655.443768    -4657.027683    -4657.151819 30.001166 -3.320150  1.791946
   scf:  441    -4652.956119    -4656.392392    -4656.482408 88.248636 -3.345004  2.833291
   scf:  442    -4654.337336    -4657.068482    -4657.165556 65.714917 -3.301988  0.726706
   scf:  443    -4645.129634    -4653.533371    -4653.620866 89.209758 -3.290654  5.370489
   scf:  444    -4646.812414    -4655.284146    -4655.307139162.147636 -3.406042  3.541323
   scf:  445    -4654.147040    -4656.022935    -4656.092370 10.838266 -3.317345  3.196210
   scf:  446    -4636.234303    -4652.369111    -4652.451229166.583921 -2.978167  7.188832
   scf:  447    -4655.477034    -4654.421031    -4654.516902 18.581967 -3.274259  4.677501
   scf:  448    -4644.185075    -4655.019315    -4655.078296148.899582 -3.766767  5.394010
   scf:  449    -4656.128778    -4655.791413    -4655.863683  7.294509 -3.531465  3.925243
   scf:  450    -4630.320763    -4650.985292    -4650.986021167.562025 -2.935639  7.714487
   scf:  451    -4650.210913    -4656.177983    -4656.240629154.970320 -3.270636  2.287829
   scf:  452    -4635.139831    -4652.175863    -4652.196776154.786998 -3.202530  5.916531
   scf:  453    -4656.960171    -4657.286519    -4657.393932116.194141 -3.263813  0.595845
   scf:  454    -4653.425331    -4656.740951    -4656.836024 38.904365 -3.307214  1.666539
   scf:  455    -4654.042288    -4656.552728    -4656.646039 78.310505 -3.313190  2.520255
   scf:  456    -4642.002156    -4653.983240    -4654.034167134.296952 -3.277428  4.483299
   scf:  457    -4656.019054    -4657.507300    -4657.635923108.156181 -3.298822  1.081348
   scf:  458    -4651.250752    -4656.041839    -4656.144078 79.401058 -3.303407  3.005225
   scf:  459    -4658.251315    -4657.586111    -4657.728748 35.337251 -3.304972  1.146823
   scf:  460    -4653.412873    -4656.543985    -4656.640388 72.437760 -3.345218  2.701151
   scf:  461    -4656.803400    -4657.355514    -4657.472537 31.996412 -3.320815  0.971095
   scf:  462    -4640.408094    -4652.767990    -4652.831764125.776546 -3.243769  5.973590
   scf:  463    -4654.293475    -4656.854443    -4656.939246128.451490 -3.329539  1.136517
   scf:  464    -4649.554222    -4655.858703    -4655.933060 73.838490 -3.295422  2.613924
   scf:  465    -4652.742677    -4656.419097    -4656.508086105.646984 -3.341911  2.846370
   scf:  466    -4654.435739    -4656.941233    -4657.024535 53.128780 -3.328166  0.864467
   scf:  467    -4640.733019    -4652.609585    -4652.663631107.264344 -3.238404  5.899620
   scf:  468    -4648.801743    -4655.977140    -4656.044388166.063640 -3.350612  3.313406
   scf:  469    -4654.113158    -4656.428574    -4656.489685 25.317573 -3.303701  1.706020
   scf:  470    -4635.366631    -4651.914580    -4651.942280140.992316 -3.091305  6.637577
   scf:  471    -4658.497371    -4657.038408    -4657.139074 90.140627 -3.295689  0.847699
   scf:  472    -4650.190883    -4655.942230    -4655.979786 61.464911 -3.330308  2.338306
   scf:  473    -4649.304484    -4655.458902    -4655.569666117.318432 -3.301501  3.795183
   scf:  474    -4650.159473    -4656.327624    -4656.398129119.078492 -3.302701  2.467123
   scf:  475    -4655.352124    -4656.381277    -4656.476216 12.090614 -3.341568  3.059115
   scf:  476    -4636.456059    -4652.351580    -4652.425871165.472673 -3.014632  6.971903
   scf:  477    -4652.994830    -4653.346900    -4653.422076 10.027161 -3.271730  5.402224
   scf:  478    -4640.171097    -4654.134087    -4654.143611162.039072 -3.913439  6.130168
   scf:  479    -4655.779617    -4655.708977    -4655.783421  9.616466 -3.606880  4.213640
   scf:  480    -4631.734824    -4651.470767    -4651.473698167.539302 -3.027646  7.260960
   scf:  481    -4648.462660    -4656.062254    -4656.139485167.711707 -3.342116  3.160463
   scf:  482    -4640.811330    -4653.881348    -4653.939944148.470205 -3.233980  4.809124
   scf:  483    -4650.690567    -4656.576228    -4656.679651145.044391 -3.281322  2.771925
   scf:  484    -4654.410738    -4657.008748    -4657.117505 81.477071 -3.257780  1.475275
   scf:  485    -4646.841993    -4654.014860    -4654.080054 62.920950 -3.253755  4.683083
   scf:  486    -4649.382207    -4655.893671    -4655.961506147.396565 -3.374151  3.622617
   scf:  487    -4652.756527    -4655.531086    -4655.565510 11.448252 -3.311079  3.109766
   scf:  488    -4632.904761    -4651.830978    -4651.876441167.053504 -2.972132  7.203327
   scf:  489    -4656.892615    -4654.610854    -4654.696926 25.680781 -3.252592  4.335367
   scf:  490    -4642.932304    -4654.691751    -4654.702519141.990825 -3.725150  4.735144
   scf:  491    -4656.696872    -4656.189231    -4656.286897  7.319329 -3.485712  3.691357
   scf:  492    -4634.779615    -4652.065340    -4652.132196167.817307 -2.941912  7.375115
   scf:  493    -4650.281591    -4656.738106    -4656.838451154.928846 -3.266684  2.240073
   scf:  494    -4639.326028    -4653.107396    -4653.188759153.573521 -3.222128  5.733898
[...]
   scf:  816    -4653.814860    -4656.932455    -4657.014001111.545663 -3.303195  1.047375
   scf:  817    -4651.537042    -4655.928561    -4655.990846 47.806915 -3.347782  3.229273
   scf:  818    -4637.544944    -4652.379179    -4652.419360165.211114 -3.211843  6.042652
   scf:  819    -4652.187796    -4656.787476    -4656.858088119.177659 -3.295067  1.144400
   scf:  820    -4651.723314    -4656.000239    -4656.064871 44.827940 -3.335339  3.126687
   scf:  821    -4637.483335    -4652.332766    -4652.373550164.100866 -3.185035  6.141103
   scf:  822    -4653.891922    -4656.817887    -4656.892257100.308810 -3.291855  1.221716
   scf:  823    -4649.650288    -4655.643337    -4655.688284 65.756075 -3.366655  3.423461
   scf:  824    -4638.986645    -4652.842703    -4652.896028163.268532 -3.257730  5.621812
   scf:  825    -4646.227038    -4655.791391    -4655.837473159.540589 -3.293546  2.888590
   scf:  826    -4655.385144    -4656.396988    -4656.488417 10.397043 -3.314153  2.950970
   scf:  827    -4636.865442    -4652.556158    -4652.653698164.732122 -2.956509  7.186304
   scf:  828    -4653.786268    -4653.309900    -4653.395926  4.507149 -3.244387  5.584890
   scf:  829    -4640.662886    -4654.204257    -4654.256304164.586008 -4.094854  6.660568
   scf:  830    -4655.269698    -4655.366357    -4655.421161 10.670421 -3.666664  4.416599
   scf:  831    -4630.498469    -4651.280326    -4651.280621167.364141 -2.992265  7.411543
   scf:  832    -4648.568667    -4655.963016    -4656.031359167.558841 -3.346092  3.228494
   scf:  833    -4640.995148    -4653.963605    -4654.028960148.399130 -3.227822  4.827415
   scf:  834    -4650.185615    -4656.456939    -4656.556290147.746482 -3.291663  2.956166
   scf:  835    -4655.835033    -4657.157528    -4657.258943 61.329150 -3.249490  0.965540
   scf:  836    -4640.972341    -4652.625124    -4652.658314101.922660 -3.238691  5.671186
   scf:  837    -4648.821786    -4655.756881    -4655.803946161.161203 -3.305525  3.138736
   scf:  838    -4653.737653    -4656.520597    -4656.579885 29.937762 -3.259665  1.367857
   scf:  839    -4637.172483    -4652.231414    -4652.277818135.031408 -3.090166  6.557623
   scf:  840    -4652.931905    -4656.760631    -4656.846067142.819112 -3.286802  1.857039
   scf:  841    -4648.313312    -4655.593351    -4655.657765 91.171668 -3.290464  2.950181
   scf:  842    -4656.034032    -4657.414890    -4657.540322 82.619682 -3.300152  1.341639
   scf:  843    -4643.858636    -4653.927235    -4653.997177117.930085 -3.286201  4.780885
   scf:  844    -4658.541127    -4657.681099    -4657.821970 78.303422 -3.301414  0.691428
   scf:  845    -4657.122338    -4657.547825    -4657.681087  3.985784 -3.319301  0.675218
   scf:  846    -4652.845633    -4656.299936    -4656.395689 73.415646 -3.387350  3.380105
   scf:  847    -4655.181194    -4657.096631    -4657.200446 75.334374 -3.322510  0.785030
   scf:  848    -4648.117068    -4654.772583    -4654.835483 59.153739 -3.308492  3.857619
   scf:  849    -4649.088112    -4655.510692    -4655.554649134.403767 -3.430183  3.694412
   scf:  850    -4652.919603    -4655.643882    -4655.683184 13.126243 -3.317936  3.047909
   scf:  851    -4634.588650    -4652.136093    -4652.198202164.664315 -3.007301  7.133652
   scf:  852    -4656.681899    -4654.782848    -4654.866502 28.463242 -3.279228  4.112251
   scf:  853    -4643.040304    -4654.686472    -4654.689497139.117974 -3.680674  4.826427
   scf:  854    -4656.865658    -4655.990018    -4656.074002  6.432080 -3.486603  3.704928
   scf:  855    -4633.721489    -4651.886670    -4651.953182167.778877 -2.881891  7.611917
   scf:  856    -4657.050612    -4657.373474    -4657.488144107.712447 -3.263901  0.713709
   scf:  857    -4653.711943    -4656.807944    -4656.879388 14.643021 -3.297445  1.288039
   scf:  858    -4658.045154    -4657.616510    -4657.748940  8.653863 -3.297510  0.387007
   scf:  859    -4654.939951    -4656.983505    -4657.086224 37.496498 -3.321174  1.817454
   scf:  860    -4646.688903    -4654.673632    -4654.776948120.587927 -3.297148  4.473831
   scf:  861    -4652.098378    -4656.671236    -4656.739340107.661010 -3.323222  1.087792
   scf:  862    -4652.605257    -4656.089315    -4656.163061 37.035733 -3.343117  3.208537
   scf:  863    -4636.587419    -4652.093493    -4652.123580165.978291 -3.153423  6.340406
   scf:  864    -4655.494522    -4656.560719    -4656.648852 73.089961 -3.308414  1.870816
   scf:  865    -4647.384222    -4655.288164    -4655.316645 94.392634 -3.440290  3.875878
   scf:  866    -4657.135267    -4656.643951    -4656.737055 13.514654 -3.309379  2.366255
   scf:  867    -4634.776765    -4651.746095    -4651.756808153.777541 -3.090147  6.749849
   scf:  868    -4654.361582    -4653.760467    -4653.843463  9.804347 -3.282026  5.104568
   scf:  869    -4640.701010    -4654.161938    -4654.163247157.467222 -3.906921  5.893783
   scf:  870    -4656.352876    -4655.876191    -4655.963134  7.885706 -3.597708  4.149726
   scf:  871    -4632.231364    -4651.514496    -4651.533174167.694906 -2.988520  7.334432
   scf:  872    -4648.223144    -4656.249064    -4656.335933167.812578 -3.328990  3.107033
   scf:  873    -4639.081868    -4653.296366    -4653.367529160.572907 -3.229614  5.423829
   scf:  874    -4650.048081    -4656.573104    -4656.670324153.616368 -3.274539  2.581138
   scf:  875    -4656.463038    -4657.390945    -4657.507436 51.686379 -3.259820  0.766137
   scf:  876    -4642.251242    -4652.965691    -4653.021421104.797227 -3.254026  5.581349
   scf:  877    -4649.790142    -4655.931588    -4655.979626154.021309 -3.298669  2.676510
   scf:  878    -4653.268727    -4656.730953    -4656.795001 43.869302 -3.265845  1.470641
   scf:  879    -4641.193524    -4652.808859    -4652.880158114.249907 -3.178836  6.112718
   scf:  880    -4648.200332    -4655.865165    -4655.922522164.513303 -3.344855  3.241596
   scf:  881    -4654.161108    -4656.481575    -4656.547740 21.946645 -3.276964  1.785402
   scf:  882    -4636.284571    -4652.149238    -4652.193094142.752060 -3.069625  6.673735
   scf:  883    -4658.037407    -4657.045667    -4657.143908 93.703647 -3.285362  1.117228
   scf:  884    -4651.142308    -4656.226833    -4656.262868 44.765787 -3.306420  1.677683
   scf:  885    -4652.843999    -4656.244599    -4656.363297 88.565284 -3.297299  2.991634
   scf:  886    -4648.332194    -4655.708382    -4655.750337113.410296 -3.335093  3.128135
   scf:  887    -4656.131174    -4656.408300    -4656.505566  8.522519 -3.343603  3.121682
   scf:  888    -4636.396568    -4652.487358    -4652.580110166.676684 -2.956392  7.229356
   scf:  889    -4654.169273    -4653.407401    -4653.506306  4.569328 -3.244393  5.635180
   scf:  890    -4638.548134    -4653.445894    -4653.453984165.684604 -4.280536  7.045980
   scf:  891    -4655.274587    -4655.535400    -4655.608475 11.637552 -3.726524  4.592280
   scf:  892    -4632.315382    -4651.709957    -4651.725660167.435706 -3.061500  7.204196
   scf:  893    -4647.733165    -4655.945863    -4656.019872167.622100 -3.406461  3.365551
   scf:  894    -4656.097731    -4657.057358    -4657.151847 36.044179 -3.232145  1.137208
   scf:  895    -4638.637242    -4652.422118    -4652.470473131.343000 -3.159612  6.282268
   scf:  896    -4654.509820    -4656.862052    -4656.944980127.981953 -3.275323  0.968166
   scf:  897    -4646.459099    -4654.945400    -4655.004441 90.425367 -3.261777  3.609269
   scf:  898    -4651.677901    -4656.263942    -4656.344568125.528931 -3.308947  2.952280
   scf:  899    -4654.253694    -4656.864576    -4656.940504 50.943139 -3.295365  1.042682
   scf:  900    -4639.844940    -4652.476325    -4652.526247112.377964 -3.195241  6.055653
   scf:  901    -4648.808289    -4655.927490    -4655.988399164.982465 -3.323765  3.176913
   scf:  902    -4653.969467    -4656.814940    -4656.886291 49.083275 -3.282239  1.207713
   scf:  903    -4639.159964    -4652.379711    -4652.421563115.788232 -3.190901  6.078229
   scf:  904    -4648.773258    -4655.907300    -4655.967322164.890162 -3.332289  3.196901
   scf:  905    -4653.815509    -4656.792785    -4656.862091 50.223539 -3.281229  1.269757
   scf:  906    -4639.496541    -4652.448938    -4652.494952114.579773 -3.192544  6.058823
   scf:  907    -4648.678673    -4655.890540    -4655.950002164.973715 -3.337864  3.231232
   scf:  908    -4653.964506    -4656.712743    -4656.778816 41.807631 -3.279944  1.281243
   scf:  909    -4638.276579    -4652.308017    -4652.349430123.289710 -3.158220  6.237178
   scf:  910    -4649.683677    -4656.128956    -4656.197639161.320356 -3.317466  2.938556
   scf:  911    -4651.487961    -4656.517258    -4656.590233 81.910483 -3.286960  1.510899
   scf:  912    -4649.050712    -4654.587271    -4654.690900 59.796645 -3.276529  4.613715
   scf:  913    -4647.268842    -4655.308069    -4655.339166147.375569 -3.471110  3.966645
   scf:  914    -4653.307818    -4655.700088    -4655.752315 16.238065 -3.366458  3.411591
   scf:  915    -4634.593666    -4652.224779    -4652.288118167.527734 -3.000992  7.112075
   scf:  916    -4657.126394    -4657.463825    -4657.582826112.456057 -3.270878  0.666779
   scf:  917    -4652.990034    -4656.524382    -4656.607550 37.580966 -3.299543  1.763425
   scf:  918    -4653.706877    -4656.527742    -4656.622180 84.385380 -3.318745  2.697091
   scf:  919    -4643.087187    -4654.274722    -4654.321646131.856251 -3.291961  4.230902
   scf:  920    -4658.406250    -4657.649128    -4657.791143 62.701764 -3.291642  0.976425
   scf:  921    -4653.178618    -4656.451378    -4656.547030 72.375918 -3.341982  2.930349
   scf:  922    -4657.464303    -4657.679108    -4657.814064 51.416327 -3.309963  0.332555
   scf:  923    -4648.384768    -4654.863706    -4654.957403 83.779356 -3.308377  4.150952
   scf:  924    -4655.532268    -4657.203491    -4657.313322102.973983 -3.324743  1.202761
   scf:  925    -4652.943941    -4656.647377    -4656.717041 40.452514 -3.319200  1.440056
   scf:  926    -4648.614639    -4654.279435    -4654.392138 78.295807 -3.300921  4.981546
   scf:  927    -4646.410795    -4655.394313    -4655.419864153.831147 -3.401556  3.542137
   scf:  928    -4654.434228    -4656.049161    -4656.124154 13.838687 -3.389374  3.418239
   scf:  929    -4636.104694    -4652.512348    -4652.603301167.847090 -2.987829  7.147520
   scf:  930    -4658.805174    -4656.573296    -4656.696279 57.611944 -3.282064  2.660139
   scf:  931    -4648.465303    -4655.631126    -4655.684163109.778093 -3.434416  3.661314
   scf:  932    -4656.221560    -4656.243155    -4656.328454  6.933001 -3.352605  3.314520
   scf:  933    -4633.847228    -4651.838695    -4651.875398167.644656 -2.944523  7.431812
   scf:  934    -4654.304741    -4653.469540    -4653.568477  8.937480 -3.242358  5.586502
   scf:  935    -4639.545492    -4653.774865    -4653.780147164.670867 -4.071012  6.519297
   scf:  936    -4655.356667    -4655.713066    -4655.795359  9.759425 -3.665768  4.385830
   scf:  937    -4632.209410    -4651.610398    -4651.621215167.474415 -3.062762  7.144303
   scf:  938    -4648.058927    -4656.062775    -4656.143149167.629041 -3.377377  3.263233
   scf:  939    -4654.024521    -4657.013255    -4657.111916 76.839432 -3.231226  1.165529
   scf:  940    -4652.647606    -4656.245430    -4656.341540 31.024822 -3.255237  2.688859
   scf:  941    -4650.123660    -4655.548612    -4655.596955107.871339 -3.421505  3.663027
   scf:  942    -4653.929001    -4656.024432    -4656.079006 12.622962 -3.265915  2.618808
   scf:  943    -4635.155696    -4652.115980    -4652.173394158.621611 -3.008332  7.047238
   scf:  944    -4657.789587    -4655.451123    -4655.548447 38.347844 -3.264519  3.639413
   scf:  945    -4644.909883    -4655.007306    -4655.016919128.943620 -3.561222  4.331461
   scf:  946    -4656.391698    -4656.138520    -4656.226872  7.041549 -3.420118  3.464090
   scf:  947    -4632.992089    -4651.646218    -4651.674020167.798031 -2.958876  7.300443
   scf:  948    -4659.368696    -4657.332697    -4657.472574 75.753050 -3.260328  1.810979
   scf:  949    -4650.705948    -4655.926216    -4655.993728 92.039270 -3.375477  3.347967
   scf:  950    -4656.596052    -4656.724638    -4656.828790 10.978757 -3.302376  2.467638
   scf:  951    -4635.705603    -4652.078591    -4652.128985156.754297 -3.047910  6.914263
   scf:  952    -4654.325245    -4653.408265    -4653.500909  5.573480 -3.251343  5.543108
   scf:  953    -4639.583761    -4653.788746    -4653.789690164.409151 -4.104353  6.537920
   scf:  954    -4656.216791    -4655.813797    -4655.905215 10.121426 -3.679870  4.413933
   scf:  955    -4632.748024    -4651.704196    -4651.739432167.675541 -2.992730  7.273269
   scf:  956    -4647.656002    -4656.220449    -4656.310064167.853686 -3.374695  3.252435
   scf:  957    -4655.091190    -4657.333703    -4657.470039 88.713282 -3.240654  1.723387
   scf:  958    -4653.309633    -4656.698015    -4656.790781 71.608896 -3.273258  2.063528
   scf:  959    -4656.819416    -4657.628648    -4657.764157 51.294073 -3.275829  0.581242
   scf:  960    -4652.885865    -4656.130016    -4656.247582 51.505903 -3.285365  3.142416
   scf:  961    -4652.302405    -4656.450544    -4656.534303109.528783 -3.309168  2.631200
   scf:  962    -4654.049397    -4656.519322    -4656.582852 20.458587 -3.304551  1.480171
   scf:  963    -4637.124591    -4652.269674    -4652.324382137.019394 -3.093900  6.577154
   scf:  964    -4657.377848    -4657.117481    -4657.214402102.869103 -3.293474  0.940555
   scf:  965    -4652.064299    -4656.420116    -4656.471810 32.191923 -3.323552  1.460727
   scf:  966    -4644.356096    -4653.802655    -4653.900344127.449905 -3.287025  5.224118
   scf:  967    -4649.203489    -4656.260644    -4656.327060146.292573 -3.307308  2.528633
   scf:  968    -4654.453084    -4656.204318    -4656.286805 12.216124 -3.343312  3.132109
   scf:  969    -4636.954331    -4652.503172    -4652.588271166.137503 -3.008233  6.989058
   scf:  970    -4653.616808    -4653.785951    -4653.857857 13.543605 -3.281281  4.959092
   scf:  971    -4640.900317    -4654.301452    -4654.304014153.888310 -3.827760  5.711196
   scf:  972    -4656.848730    -4655.844179    -4655.925156  7.182679 -3.565228  4.049196
   scf:  973    -4633.491986    -4651.889926    -4651.956808167.750648 -2.914441  7.661332
   scf:  974    -4648.502297    -4656.089726    -4656.161321166.352145 -3.287959  2.938304
   scf:  975    -4636.080257    -4652.557737    -4652.602578165.193357 -3.207307  5.839865
   scf:  976    -4654.920546    -4657.296275    -4657.413574132.781302 -3.263730  1.187898
   scf:  977    -4647.602835    -4655.125910    -4655.196681 94.436675 -3.267700  3.613226
   scf:  978    -4658.195435    -4657.607007    -4657.739333 64.119496 -3.281512  0.381226
   scf:  979    -4649.948982    -4655.275695    -4655.371272 69.042205 -3.299435  3.821922
   scf:  980    -4651.057129    -4656.048482    -4656.110468124.660707 -3.321325  2.728208
   scf:  981    -4654.099573    -4656.988060    -4657.073310 51.484937 -3.275569  1.126998
   scf:  982    -4642.348919    -4652.939580    -4653.014440107.186118 -3.229038  5.885336
   scf:  983    -4647.691861    -4655.734707    -4655.786754165.918283 -3.362971  3.332006
   scf:  984    -4653.937213    -4656.181044    -4656.242329 14.949413 -3.288446  2.457375
   scf:  985    -4635.642142    -4652.192856    -4652.252161154.946369 -3.015896  6.974850
   scf:  986    -4657.393869    -4655.198570    -4655.288113 35.134756 -3.279268  3.753036
   scf:  987    -4644.350408    -4654.939133    -4654.950741132.011932 -3.589582  4.313832
   scf:  988    -4656.577644    -4656.119320    -4656.207273  7.172611 -3.440215  3.529713
   scf:  989    -4633.246325    -4651.676986    -4651.704881167.732289 -2.944759  7.343428
   scf:  990    -4657.939981    -4657.239275    -4657.360677 85.578109 -3.264456  1.297827
   scf:  991    -4648.793375    -4655.433818    -4655.457043 80.842694 -3.328164  3.233047
   scf:  992    -4657.437711    -4657.389292    -4657.506663 62.141658 -3.286006  0.725173
   scf:  993    -4653.191257    -4656.648780    -4656.710585 20.526625 -3.310585  1.315214
   scf:  994    -4651.417859    -4655.739410    -4655.861900 88.223729 -3.297331  3.683906
   scf:  995    -4648.815167    -4655.893698    -4655.944256124.164308 -3.320365  2.943669
   scf:  996    -4655.012246    -4656.221248    -4656.305731 11.091711 -3.348789  3.183658
   scf:  997    -4636.296597    -4652.457199    -4652.545748166.963138 -2.975708  7.152966
   scf:  998    -4653.969604    -4653.498838    -4653.582147  6.731278 -3.265337  5.350058
   scf:  999    -4639.990038    -4654.014942    -4654.022118161.172731 -3.970957  6.225267
   scf: 1000    -4656.221949    -4655.713398    -4655.785815 11.014029 -3.632774  4.421667
SCF_NOT_CONV: SCF did not converge in maximum number of steps (required).
Geom step, scf iteration, dDmax, dHmax:    0  1000     11.014029     0.324987

timer: Elapsed wall time (sec) =    2214.607
timer: CPU execution times (sec):

Routine            Calls   Time/call    Tot.time        %
siesta                 1    2214.299    2214.299   100.00
Setup                  1       0.221       0.221     0.01
bands                  1       0.000       0.000     0.00
KSV_init               1       0.000       0.000     0.00
IterGeom               1    2214.078    2214.078    99.99
geom_init              1      15.305      15.305     0.69
state_init             1      10.875      10.875     0.49
hsparse                1       0.130       0.130     0.01
overlap                1       0.031       0.031     0.00
Setup_H0               1       2.336       2.336     0.11
naefs                  1       0.000       0.000     0.00
dnaefs                 1       0.000       0.000     0.00
two-body               1       0.000       0.000     0.00
MolMec                 1       0.000       0.000     0.00
kinefsm                1       0.033       0.033     0.00
nlefsm                 1       0.877       0.877     0.04
DHSCF_Init             1       1.426       1.426     0.06
DHSCF1                 1       0.033       0.033     0.00
InitMesh               1       0.033       0.033     0.00
INITMESH               1       0.000       0.000     0.00
DHSCF2                 1       1.393       1.393     0.06
REMESH                 1       0.333       0.333     0.02
REORD               2005       0.000       0.063     0.00
PHION                  1       0.945       0.945     0.04
COMM_BSC            4005       0.000       0.076     0.00
POISON              1002       0.001       0.543     0.02
fft                 2004       0.000       0.354     0.02
setup_H             1001       2.179    2181.459    98.52
DHSCF               1001       2.178    2180.193    98.46
DHSCF3              1001       2.178    2180.191    98.46
rhoofd              1001       1.229    1230.497    55.57
XC                  1001       0.002       2.432     0.11
GXC-CellXC          1001       0.002       2.398     0.11
gridxc@cellXC       1001       0.002       2.395     0.11
vmat                1001       0.945     946.425    42.74
IterSCF             1000       2.199    2198.761    99.30
compute_dm          1000       0.014      13.888     0.63
diagon              1000       0.013      13.098     0.59
r-eigvec            1000       0.001       0.964     0.04
r-buildHS           1000       0.001       0.564     0.03
rdiag               1000       0.000       0.397     0.02
rdiag1              1000       0.000       0.017     0.00
rdiag2              1000       0.000       0.031     0.00
rdiag3              1000       0.000       0.268     0.01
rdiag4              1000       0.000       0.070     0.00
r-buildD            1000       0.012      11.891     0.54
MIXER               1000       0.002       2.438     0.11
  
ABNORMAL_TERMINATION
Stopping Program from Node:    0
