<preamble>

<basis_specs>
===============================================================================
Pb                   Z=  82    Mass=  207.20        Charge= 0.17977+309
Lmxo=2 Lmxkb= 3    BasisType=split      Semic=T
L=0  Nsemic=0  Cnfigmx=6
          i=1  nzeta=2  polorb=0  (6s)
            splnorm:   0.15000    
               vcte:    40.000    
               rinn:    4.9069    
               qcoe:    0.0000    
               qyuk:    0.0000    
               qwid:   0.10000E-01
                rcs:    5.4466      3.9365    
            lambdas:    1.0000      1.0000    
L=1  Nsemic=0  Cnfigmx=6
          i=1  nzeta=2  polorb=0  (6p)  (to be polarized non-perturbatively)
            splnorm:   0.15000    
               vcte:    40.000    
               rinn:    6.7879    
               qcoe:    0.0000    
               qyuk:    0.0000    
               qwid:   0.10000E-01
                rcs:    7.5346      5.5904    
            lambdas:    1.0000      1.0000    
L=2  Nsemic=1  Cnfigmx=6
          i=1  nzeta=1  polorb=0  (5d)  (semicore shell)
            splnorm:   0.15000    
               vcte:    40.000    
               rinn:    3.3293    
               qcoe:    0.0000    
               qyuk:    0.0000    
               qwid:   0.10000E-01
                rcs:    3.6993    
            lambdas:    1.0000    
          i=2  nzeta=1  polorb=0  (6d)  (non-perturbative polarization shell)
            splnorm:   0.15000    
               vcte:    40.000    
               rinn:    6.7879    
               qcoe:    0.0000    
               qyuk:    0.0000    
               qwid:   0.10000E-01
                rcs:    7.5346    
            lambdas:    1.0000    
-------------------------------------------------------------------------------
L=0  Nkbl=1  erefs: 0.17977+309
L=1  Nkbl=1  erefs: 0.17977+309
L=2  Nkbl=2  erefs: 0.17977+309 0.17977+309
L=3  Nkbl=1  erefs: 0.17977+309
===============================================================================
</basis_specs>

<pseudopotential_header>
 Pb pb nrl pcec
 ONCVPSP-4.2023-03-20Hamann's oncvpsp                        
 6s 2.00  r= 2.16/6p 2.00  r= 2.55/5d10.00  r= 2.11/5f 0.00  r= 2.11/   5d:6s:6p:
</pseudopotential_header>
</preamble>
Pb                            # Symbol
Pb                            # Label
   82                         # Atomic number
     14.0000000000                             # Valence charge
     207.200000000        # Mass 
     163.486243756        # Self energy 
   2   6                      # Lmax for basis, no. of nl orbitals 
   3   8                      # Lmax for projectors, no. of nl KB projectors
# PAOs:__________________________
  0  6  1  0  2.000000   #orbital l, n, z, is_polarized, population
 500    0.1091507302237396E-01     5.446621438164605     # npts, delta, cutoff
     0.000000000000000        0.5779900553339212E-01
    0.1091507302237396E-01    0.5786516894534428E-01
    0.2183014604474792E-01    0.5806757324566163E-01
    0.3274521906712187E-01    0.5840449497264477E-01
    0.4366029208949583E-01    0.5887530596363739E-01
    0.5457536511186979E-01    0.5947913023095940E-01
    0.6549043813424374E-01    0.6021484681011120E-01
    0.7640551115661770E-01    0.6108109363550537E-01
    0.8732058417899166E-01    0.6207627227320044E-01
    0.9823565720136562E-01    0.6319855347400069E-01
    0.1091507302237396        0.6444588352069765E-01
    0.1200658032461135        0.6581599134251853E-01
    0.1309808762684875        0.6730639636738565E-01
    0.1418959492908614        0.6891441707983316E-01
    0.1528110223132354        0.7063718024969434E-01
    0.1637260953356094        0.7247163079405394E-01
    0.1746411683579833        0.7441454223249587E-01
    0.1855562413803573        0.7646252769337469E-01
    0.1964713144027312        0.7861205142672072E-01
    0.2073863874251052        0.8085944077745309E-01
    0.2183014604474792        0.8320089857082860E-01
    0.2292165334698531        0.8563251586050777E-01
    0.2401316064922271        0.8815028498826795E-01
    0.2510466795146010        0.9075011290324682E-01
    0.2619617525369750        0.9342783468766062E-01
    0.2728768255593489        0.9617922723520796E-01
    0.2837918985817229        0.9900002302785366E-01
    0.2947069716040969        0.1018859239563809    
    0.3056220446264708        0.1048326151300149    
    0.3165371176488448        0.1078357786205538    
    0.3274521906712187        0.1108911070868007    
    0.3383672636935927        0.1139943172256631    
    0.3492823367159666        0.1171411629970980    
    0.3601974097383406        0.1203274485710997    
    0.3711124827607146        0.1235490409461833    
    0.3820275557830885        0.1268018821902834    
    0.3929426288054625        0.1300820012566801    
    0.4038577018278364        0.1333855253294580    
    0.4147727748502104        0.1367086906551120    
    0.4256878478725843        0.1400478528192123    
    0.4366029208949583        0.1433994964295238    
    0.4475179939173323        0.1467602441696365    
    0.4584330669397062        0.1501268651899787    
    0.4693481399620802        0.1534962828060472    
    0.4802632129844541        0.1568655814767796    
    0.4911782860068281        0.1602320130391935    
    0.5020933590292020        0.1635930021787144    
    0.5130084320515760        0.1669461511179774    
    0.5239235050739499        0.1702892435103203    
    0.5348385780963240        0.1736202475276414    
    0.5457536511186979        0.1769373181357856    
    0.5566687241410718        0.1802387985540999    
    0.5675837971634458        0.1835232208992782    
    0.5784988701858198        0.1867893060170430    
    0.5894139432081937        0.1900359625086120    
    0.6003290162305677        0.1932622849622214    
    0.6112440892529416        0.1964675514032274    
    0.6221591622753155        0.1996512199794744    
    0.6330742352976896        0.2028129249016637    
    0.6439893083200635        0.2059524716614188    
    0.6549043813424374        0.2090698315525408    
    0.6658194543648114        0.2121651355236457    
    0.6767345273871854        0.2152386673929058    
    0.6876496004095594        0.2182908564580160    
    0.6985646734319333        0.2213222695367288    
    0.7094797464543072        0.2243336024753835    
    0.7203948194766812        0.2273256711647555    
    0.7313098924990552        0.2302994021042959    
    0.7422249655214291        0.2332558225573932    
    0.7531400385438031        0.2361960503417040    
    0.7640551115661770        0.2391212832998031    
    0.7749701845885510        0.2420327884964768    
    0.7858852576109250        0.2449318911898555    
    0.7968003306332989        0.2478199636242898    
    0.8077154036556728        0.2506984136934109    
    0.8186304766780468        0.2535686735221664    
    0.8295455497004208        0.2564321880168057    
    0.8404606227227948        0.2592904034317866    
    0.8513756957451687        0.2621447560023922    
    0.8622907687675426        0.2649966606914665    
    0.8732058417899167        0.2678475000981380    
    0.8841209148122906        0.2706986135756287    
    0.8950359878346645        0.2735512866043269    
    0.9059510608570385        0.2764067404651414    
    0.9168661338794124        0.2792661222568519    
    0.9277812069017864        0.2821304952996287    
    0.9386962799241604        0.2850008299651977    
    0.9496113529465343        0.2878779949722282    
    0.9605264259689082        0.2907627491834566    
    0.9714414989912822        0.2936557339388148    
    0.9823565720136562        0.2965574659564421    
    0.9932716450360302        0.2994683308309254    
     1.004186718058404        0.3023885771554280    
     1.015101791080778        0.3053183112915904    
     1.026016864103152        0.3082574928082066    
     1.036931937125526        0.3112059306066869    
     1.047847010147900        0.3141632797483094    
     1.058762083170274        0.3171290389951595    
     1.069677156192648        0.3201025490735448    
     1.080592229215022        0.3230829916655577    
     1.091507302237396        0.3260693891312993    
     1.102422375259770        0.3290606049612051    
     1.113337448282144        0.3320553449548030    
     1.124252521304518        0.3350521591192198    
     1.135167594326892        0.3380494442777623    
     1.146082667349265        0.3410454473760142    
     1.156997740371640        0.3440382694700312    
     1.167912813394014        0.3470258703784991    
     1.178827886416387        0.3500060739780690    
     1.189742959438761        0.3529765741185277    
     1.200658032461135        0.3559349411320329    
     1.211573105483509        0.3588786289083132    
     1.222488178505883        0.3618049825055093    
     1.233403251528257        0.3647112462642531    
     1.244318324550631        0.3675945723905763    
     1.255233397573005        0.3704520299714104    
     1.266148470595379        0.3732806143846839    
     1.277063543617753        0.3760772570644194    
     1.287978616640127        0.3788388355797412    
     1.298893689662501        0.3815621839853551    
     1.309808762684875        0.3842441033998345    
     1.320723835707249        0.3868813727669528    
     1.331638908729623        0.3894707597543662    
     1.342553981751997        0.3920090317431574    
     1.353469054774371        0.3944929668611129    
     1.364384127796745        0.3969193650121585    
     1.375299200819119        0.3992850588540949    
     1.386214273841493        0.4015869246767147    
     1.397129346863867        0.4038218931325197    
     1.408044419886241        0.4059869597726518    
     1.418959492908614        0.4080791953412765    
     1.429874565930988        0.4100957557825736    
     1.440789638953362        0.4120338919156679    
     1.451704711975736        0.4138909587343383    
     1.462619784998110        0.4156644242901197    
     1.473534858020484        0.4173518781195359    
     1.484449931042858        0.4189510391786013    
     1.495365004065232        0.4204597632504574    
     1.506280077087606        0.4218760497950034    
     1.517195150109980        0.4231980482126479    
     1.528110223132354        0.4244240634978106    
     1.539025296154728        0.4255525612614898    
     1.549940369177102        0.4265821721060498    
     1.560855442199476        0.4275116953393416    
     1.571770515221850        0.4283401020192409    
     1.582685588244224        0.4290665373236664    
     1.593600661266598        0.4296903222450594    
     1.604515734288972        0.4302109545996052    
     1.615430807311346        0.4306281071520132    
     1.626345880333720        0.4309416282439497    
     1.637260953356094        0.4311515430310501    
     1.648176026378468        0.4312580511936089    
     1.659091099400842        0.4312615247503803    
     1.670006172423216        0.4311625052821030    
     1.680921245445590        0.4309617005859404    
     1.691836318467963        0.4306599807840149    
     1.702751391490337        0.4302583739102975    
     1.713666464512711        0.4297580610009705    
     1.724581537535085        0.4291603707140046    
     1.735496610557459        0.4284667735041723    
     1.746411683579833        0.4276788753801297    
     1.757326756602207        0.4267984112705758    
     1.768241829624581        0.4258272380269404    
     1.779156902646955        0.4247673270905906    
     1.790071975669329        0.4236207568532374    
     1.800987048691703        0.4223897047401654    
     1.811902121714077        0.4210764392643569    
     1.822817194736451        0.4196833110968160    
     1.833732267758825        0.4182127448508496    
     1.844647340781199        0.4166672304709519    
     1.855562413803573        0.4150493143100759    
     1.866477486825947        0.4133615902399713    
     1.877392559848321        0.4116066907280851    
     1.888307632870695        0.4097872779214508    
     1.899222705893069        0.4079060347789379    
     1.910137778915443        0.4059656562938367    
     1.921052851937816        0.4039688408489641    
     1.931967924960190        0.4019182817462844    
     1.942882997982564        0.3998166589523685    
     1.953798071004939        0.3976666310999276    
     1.964713144027312        0.3954708277840970    
     1.975628217049686        0.3932318421902205    
     1.986543290072060        0.3909522240875781    
     1.997458363094434        0.3886344732208834    
     2.008373436116808        0.3862810331286374    
     2.019288509139182        0.3838942854148022    
     2.030203582161556        0.3814765444966904    
     2.041118655183930        0.3790300528465819    
     2.052033728206304        0.3765569767419271    
     2.062948801228678        0.3740594025394796    
     2.073863874251052        0.3715393334830604    
     2.084778947273426        0.3689986870520023    
     2.095694020295800        0.3664392928485417    
     2.106609093318174        0.3638628910212672    
     2.117524166340548        0.3612711313471836    
     2.128439239362922        0.3586655732819199    
     2.139354312385296        0.3560476869514995    
     2.150269385407670        0.3534188541968658    
     2.161184458430044        0.3507803680437348    
     2.172099531452417        0.3481334392022656    
     2.183014604474792        0.3454792160168513    
     2.193929677497165        0.3428188024701398    
     2.204844750519539        0.3401532616215496    
     2.215759823541914        0.3374836157038453    
     2.226674896564287        0.3348108476363205    
     2.237589969586661        0.3321359021136401    
     2.248505042609035        0.3294596867467589    
     2.259420115631409        0.3267830731837866    
     2.270335188653783        0.3241068982127591    
     2.281250261676157        0.3214319648475651    
     2.292165334698531        0.3187590433947927    
     2.303080407720905        0.3160888725009230    
     2.313995480743279        0.3134221601790367    
     2.324910553765653        0.3107595848142922    
     2.335825626788027        0.3081017961475139    
     2.346740699810401        0.3054494162363028    
     2.357655772832775        0.3028030403931592    
     2.368570845855149        0.3001632381001881    
     2.379485918877523        0.2975305539000410    
     2.390400991899897        0.2949055082628216    
     2.401316064922271        0.2922885984287667    
     2.412231137944645        0.2896802992265862    
     2.423146210967019        0.2870810638674260    
     2.434061283989393        0.2844913247144684    
     2.444976357011766        0.2819114940282487    
     2.455891430034141        0.2793419646878696    
     2.466806503056514        0.2767831108884058    
     2.477721576078888        0.2742352888148163    
     2.488636649101262        0.2716988372926186    
     2.499551722123636        0.2691740784156208    
     2.510466795146010        0.2666613181511990    
     2.521381868168384        0.2641608469236441    
     2.532296941190758        0.2616729401758965    
     2.543212014213132        0.2591978589100969    
     2.554127087235506        0.2567358502081223    
     2.565042160257880        0.2542871477384710    
     2.575957233280254        0.2518519722540521    
     2.586872306302628        0.2494305320773047    
     2.597787379325002        0.2470230235549311    
     2.608702452347376        0.2446296314814508    
     2.619617525369750        0.2422505295037755    
     2.630532598392124        0.2398858805152706    
     2.641447671414498        0.2375358370355571    
     2.652362744436872        0.2352005415724557    
     2.663277817459246        0.2328801269703780    
     2.674192890481620        0.2305747167453475    
     2.685107963503993        0.2282844254067502    
     2.696023036526368        0.2260093587666271    
     2.706938109548742        0.2237496142370628    
     2.717853182571115        0.2215052811162176    
     2.728768255593490        0.2192764408635622    
     2.739683328615863        0.2170631673648427    
     2.750598401638237        0.2148655271873000    
     2.761513474660611        0.2126835798256458    
     2.772428547682985        0.2105173779392829    
     2.783343620705359        0.2083669675812386    
     2.794258693727733        0.2062323884192660    
     2.805173766750107        0.2041136739495407    
     2.816088839772481        0.2020108517033785    
     2.827003912794855        0.1999239434473527    
     2.837918985817229        0.1978529653772038    
     2.848834058839603        0.1957979283058794    
     2.859749131861977        0.1937588378460514    
     2.870664204884351        0.1917356945874159    
     2.881579277906725        0.1897284942690692    
     2.892494350929099        0.1877372279472357    
     2.903409423951473        0.1857618821585911    
     2.914324496973847        0.1838024390794190    
     2.925239569996221        0.1818588766808050    
     2.936154643018595        0.1799311688800634    
     2.947069716040969        0.1780192856885666    
     2.957984789063342        0.1761231933561281    
     2.968899862085717        0.1742428545120795    
     2.979814935108090        0.1723782283031587    
     2.990730008130464        0.1705292705283068    
     3.001645081152839        0.1686959337704755    
     3.012560154175212        0.1668781675255029    
     3.023475227197586        0.1650759183281338    
     3.034390300219960        0.1632891298752286    
     3.045305373242334        0.1615177431461998    
     3.056220446264708        0.1597616965207119    
     3.067135519287082        0.1580209258936671    
     3.078050592309456        0.1562953647874883    
     3.088965665331830        0.1545849444617186    
     3.099880738354204        0.1528895940199405    
     3.110795811376578        0.1512092405140140    
     3.121710884398952        0.1495438090456423    
     3.132625957421326        0.1478932228652622    
     3.143541030443700        0.1462574034682547    
     3.154456103466074        0.1446362706884813    
     3.165371176488448        0.1430297427891434    
     3.176286249510822        0.1414377365509708    
     3.187201322533196        0.1398601673577376    
     3.198116395555570        0.1382969492791237    
     3.209031468577944        0.1367479951509235    
     3.219946541600318        0.1352132166526215    
     3.230861614622691        0.1336925243823541    
     3.241776687645066        0.1321858279292770    
     3.252691760667439        0.1306930359433675    
     3.263606833689813        0.1292140562026906    
     3.274521906712187        0.1277487956781675    
     3.285436979734561        0.1262971605958812    
     3.296352052756935        0.1248590564969650    
     3.307267125779309        0.1234343882951188    
     3.318182198801683        0.1220230603318054    
     3.329097271824057        0.1206249764291793    
     3.340012344846431        0.1192400399408020    
     3.350927417868805        0.1178681538002078    
     3.361842490891179        0.1165092205673768    
     3.372757563913553        0.1151631424731822    
     3.383672636935927        0.1138298214618735    
     3.394587709958301        0.1125091592316662    
     3.405502782980675        0.1112010572735024    
     3.416417856003049        0.1099054169080527    
     3.427332929025423        0.1086221393210276    
     3.438248002047797        0.1073511255968665    
     3.449163075070171        0.1060922767508747    
     3.460078148092545        0.1048454937598757    
     3.470993221114918        0.1036106775914463    
     3.481908294137293        0.1023877292318021    
     3.492823367159667        0.1011765497123972    
     3.503738440182040        0.9997704013530259E-01
     3.514653513204415        0.9878910169742733E-01
     3.525568586226788        0.9761263571363872E-01
     3.536483659249162        0.9644754363884452E-01
     3.547398732271536        0.9529372708909013E-01
     3.558313805293910        0.9415108786172534E-01
     3.569228878316284        0.9301952795469449E-01
     3.580143951338658        0.9189894958499344E-01
     3.591059024361032        0.9078925520634670E-01
     3.601974097383406        0.8969034752614237E-01
     3.612889170405780        0.8860212952167089E-01
     3.623804243428154        0.8752450445570087E-01
     3.634719316450528        0.8645737589143172E-01
     3.645634389472902        0.8540064770685507E-01
     3.656549462495276        0.8435422410855235E-01
     3.667464535517650        0.8331800964496092E-01
     3.678379608540024        0.8229190921912956E-01
     3.689294681562397        0.8127582810098895E-01
     3.700209754584772        0.8026967193915525E-01
     3.711124827607146        0.7927334677228640E-01
     3.722039900629520        0.7828675904000568E-01
     3.732954973651894        0.7730981559340869E-01
     3.743870046674267        0.7634242370516159E-01
     3.754785119696642        0.7538449107920611E-01
     3.765700192719015        0.7443592586007652E-01
     3.776615265741389        0.7349663664183700E-01
     3.787530338763763        0.7256653247664589E-01
     3.798445411786137        0.7164552288295162E-01
     3.809360484808511        0.7073351785332523E-01
     3.820275557830885        0.6983042786193157E-01
     3.831190630853259        0.6893616387164352E-01
     3.842105703875633        0.6805063734080118E-01
     3.853020776898007        0.6717376022961867E-01
     3.863935849920381        0.6630544500623914E-01
     3.874850922942755        0.6544560465244169E-01
     3.885765995965129        0.6459415266900298E-01
     3.896681068987503        0.6375100308071184E-01
     3.907596142009877        0.6291607044104440E-01
     3.918511215032251        0.6208926983650007E-01
     3.929426288054625        0.6127051689060123E-01
     3.940341361076999        0.6045972776756241E-01
     3.951256434099373        0.5965681917563142E-01
     3.962171507121746        0.5886170837010880E-01
     3.973086580144121        0.5807431315604959E-01
     3.984001653166494        0.5729455189065478E-01
     3.994916726188869        0.5652234348535802E-01
     4.005831799211243        0.5575760740761521E-01
     4.016746872233616        0.5500026368240429E-01
     4.027661945255990        0.5425023289344329E-01
     4.038577018278365        0.5350743618413563E-01
     4.049492091300738        0.5277179525825135E-01
     4.060407164323112        0.5204323238035290E-01
     4.071322237345486        0.5132167037597614E-01
     4.082237310367860        0.5060703263157593E-01
     4.093152383390234        0.4989924309424731E-01
     4.104067456412608        0.4919822627122982E-01
     4.114982529434982        0.4850390722920820E-01
     4.125897602457356        0.4781621159341860E-01
     4.136812675479730        0.4713506554656930E-01
     4.147727748502104        0.4646039582758849E-01
     4.158642821524478        0.4579212973020747E-01
     4.169557894546852        0.4513019510138939E-01
     4.180472967569226        0.4447452033960976E-01
     4.191388040591599        0.4382503439300207E-01
     4.202303113613974        0.4318166675739793E-01
     4.213218186636348        0.4254434747423710E-01
     4.224133259658721        0.4191300712833061E-01
     4.235048332681096        0.4128757684559726E-01
     4.245963405703470        0.4066798829057105E-01
     4.256878478725843        0.4005417366342778E-01
     4.267793551748217        0.3944606569765371E-01
     4.278708624770592        0.3884359766053387E-01
     4.289623697792965        0.3824670335317958E-01
     4.300538770815339        0.3765531710392026E-01
     4.311453843837714        0.3706937375774184E-01
     4.322368916860087        0.3648880867037935E-01
     4.333283989882461        0.3591355771020627E-01
     4.344199062904835        0.3534355726047179E-01
     4.355114135927209        0.3477874421719108E-01
     4.366029208949583        0.3421905598534377E-01
     4.376944281971957        0.3366443047546661E-01
     4.387859354994331        0.3311480610063716E-01
     4.398774428016705        0.3257012177325135E-01
     4.409689501039079        0.3203031690175047E-01
     4.420604574061453        0.3149533138733911E-01
     4.431519647083827        0.3096510562063633E-01
     4.442434720106201        0.3043958047827361E-01
     4.453349793128575        0.2991869731945680E-01
     4.464264866150948        0.2940239798249129E-01
     4.475179939173323        0.2889062478127087E-01
     4.486095012195697        0.2838332050173184E-01
     4.497010085218070        0.2788042839827479E-01
     4.507925158240445        0.2738189219015779E-01
     4.518840231262819        0.2688765605785922E-01
     4.529755304285192        0.2639766463941622E-01
     4.540670377307566        0.2591186302673811E-01
     4.551585450329941        0.2543019676189644E-01
     4.562500523352314        0.2495261183339522E-01
     4.573415596374688        0.2447905467242065E-01
     4.584330669397062        0.2400947214907383E-01
     4.595245742419436        0.2354381156858666E-01
     4.606160815441810        0.2308202066752300E-01
     4.617075888464184        0.2262404760996704E-01
     4.627990961486558        0.2216984098369808E-01
     4.638906034508932        0.2171934979635614E-01
     4.649821107531306        0.2127252347159709E-01
     4.660736180553680        0.2082931184523961E-01
     4.671651253576054        0.2038966516140522E-01
     4.682566326598428        0.1995353406865202E-01
     4.693481399620802        0.1952086961610362E-01
     4.704396472643176        0.1909162324957370E-01
     4.715311545665550        0.1866574680768898E-01
     4.726226618687924        0.1824319251800799E-01
     4.737141691710297        0.1782391299314087E-01
     4.748056764732672        0.1740786122686794E-01
     4.758971837755046        0.1699499059025919E-01
     4.769886910777419        0.1658525482779506E-01
     4.780801983799793        0.1617860805348955E-01
     4.791717056822168        0.1577500474701689E-01
     4.802632129844541        0.1537439974984076E-01
     4.813547202866915        0.1497674826134905E-01
     4.824462275889290        0.1458200583499312E-01
     4.835377348911663        0.1419012837443279E-01
     4.846292421934037        0.1380107212968774E-01
     4.857207494956411        0.1341479369329519E-01
     4.868122567978785        0.1303124999647634E-01
     4.879037641001159        0.1265039830530881E-01
     4.889952714023533        0.1227219621690920E-01
     4.900867787045907        0.1189660165562361E-01
     4.911782860068281        0.1152357286922763E-01
     4.922697933090655        0.1115306842513607E-01
     4.933613006113029        0.1078504720662354E-01
     4.944528079135403        0.1041946841120702E-01
     4.955443152157777        0.1005629166904050E-01
     4.966358225180151        0.9695478524583899E-02
     4.977273298202524        0.9336998951974635E-02
     4.988188371224899        0.8980845568253541E-02
     4.999103444247273        0.8627052731377323E-02
     5.010018517269646        0.8275714533826290E-02
     5.020933590292021        0.7926997050739475E-02
     5.031848663314395        0.7581143151600048E-02
     5.042763736336768        0.7238470428657265E-02
     5.053678809359142        0.6899363852828721E-02
     5.064593882381517        0.6564264976210073E-02
     5.075508955403890        0.6233659281280985E-02
     5.086424028426264        0.5908062913614984E-02
     5.097339101448639        0.5588009672562265E-02
     5.108254174471012        0.5274038830751473E-02
     5.119169247493386        0.4966684121087269E-02
     5.130084320515760        0.4666464062635691E-02
     5.140999393538134        0.4373873681674601E-02
     5.151914466560508        0.4089377608348039E-02
     5.162829539582882        0.3813404481835078E-02
     5.173744612605256        0.3546342569215448E-02
     5.184659685627630        0.3288536488968322E-02
     5.195574758650004        0.3040284924744209E-02
     5.206489831672378        0.2801839215520344E-02
     5.217404904694752        0.2573402712274519E-02
     5.228319977717126        0.2355130797389225E-02
     5.239235050739500        0.2147131470095335E-02
     5.250150123761873        0.1949466408691334E-02
     5.261065196784248        0.1762152427532421E-02
     5.271980269806622        0.1585163253517127E-02
     5.282895342828995        0.1418431552680328E-02
     5.293810415851370        0.1261851142191390E-02
     5.304725488873744        0.1115279326070508E-02
     5.315640561896117        0.9785392935294198E-03
     5.326555634918491        0.8514225157094210E-03
     5.337470707940866        0.7336910673517284E-03
     5.348385780963239        0.6250797800475383E-03
     5.359300853985613        0.5252980940466725E-03
     5.370215927007987        0.4340313967479117E-03
     5.381131000030361        0.3509414737923906E-03
     5.392046073052735        0.2756653437860751E-03
     5.402961146075109        0.2078108987996250E-03
     5.413876219097483        0.1469454743340452E-03
     5.424791292119857        0.9256603443361790E-04
     5.435706365142231        0.4400773772221170E-04
     5.446621438164605         0.000000000000000    
  0  6  2  0  0.000000   #orbital l, n, z, is_polarized, population
 500    0.7888783121698582E-02     3.936502777727592     # npts, delta, cutoff
     0.000000000000000       -0.3171630380538293    
    0.7888783121698582E-02   -0.3170895554202960    
    0.1577756624339716E-01   -0.3168605809277983    
    0.2366634936509575E-01   -0.3164791983451414    
    0.3155513248679433E-01   -0.3159457741066797    
    0.3944391560849290E-01   -0.3152608191947436    
    0.4733269873019149E-01   -0.3144249888153434    
    0.5522148185189008E-01   -0.3134390812911636    
    0.6311026497358865E-01   -0.3123040366295229    