<preamble>

<basis_specs>
===============================================================================
Zr                   Z=  40    Mass=  91.224        Charge= 0.17977+309
Lmxo=2 Lmxkb= 2    BasisType=split      Semic=T
L=0  Nsemic=1  Cnfigmx=5
          i=1  nzeta=1  polorb=0  (4s)  (semicore shell)
            splnorm:   0.15000    
               vcte:    40.000    
               rinn:    2.8643    
               qcoe:    0.0000    
               qyuk:    0.0000    
               qwid:   0.10000E-01
                rcs:    3.1826    
            lambdas:    1.0000    
          i=2  nzeta=2  polorb=0  (5s)  (to be polarized non-perturbatively)
            splnorm:   0.15000    
               vcte:    40.000    
               rinn:    7.0512    
               qcoe:    0.0000    
               qyuk:    0.0000    
               qwid:   0.10000E-01
                rcs:    7.8268      5.9188    
            lambdas:    1.0000      1.0000    
L=1  Nsemic=1  Cnfigmx=5
          i=1  nzeta=1  polorb=0  (4p)  (semicore shell)
            splnorm:   0.15000    
               vcte:    40.000    
               rinn:    3.2895    
               qcoe:    0.0000    
               qyuk:    0.0000    
               qwid:   0.10000E-01
                rcs:    3.6550    
            lambdas:    1.0000    
          i=2  nzeta=1  polorb=0  (5p)  (non-perturbative polarization shell)
            splnorm:   0.15000    
               vcte:    40.000    
               rinn:    7.0512    
               qcoe:    0.0000    
               qyuk:    0.0000    
               qwid:   0.10000E-01
                rcs:    7.8268    
            lambdas:    1.0000    
L=2  Nsemic=0  Cnfigmx=4
          i=1  nzeta=2  polorb=0  (4d)
            splnorm:   0.15000    
               vcte:    40.000    
               rinn:    5.6005    
               qcoe:    0.0000    
               qyuk:    0.0000    
               qwid:   0.10000E-01
                rcs:    6.2166      4.3603    
            lambdas:    1.0000      1.0000    
-------------------------------------------------------------------------------
L=0  Nkbl=2  erefs: 0.17977+309 0.17977+309
L=1  Nkbl=2  erefs: 0.17977+309 0.17977+309
L=2  Nkbl=1  erefs: 0.17977+309
===============================================================================
</basis_specs>

<pseudopotential_header>
 Zr pb nrl pcec
 ONCVPSP-3.2017-10-31Hamann's oncvpsp                        
 4s 2.00  r= 1.57/4p 6.00  r= 1.57/4d 2.00  r= 1.51/                    4s:4p:4d:5s:
</pseudopotential_header>
</preamble>
Zr                            # Symbol
Zr                            # Label
   40                         # Atomic number
     12.0000000000                             # Valence charge
     91.2240000000        # Mass 
     155.922284017        # Self energy 
   2   7                      # Lmax for basis, no. of nl orbitals 
   2   6                      # Lmax for projectors, no. of nl KB projectors
# PAOs:__________________________
  0  4  1  0  2.000000   #orbital l, n, z, is_polarized, population
 500    0.6377918689438385E-02     3.182581426029754     # npts, delta, cutoff
     0.000000000000000        0.1885452066377385    
    0.6377918689438385E-02    0.1886741564267145    
    0.1275583737887677E-01    0.1890722074801510    
    0.1913375606831515E-01    0.1897353418247470    
    0.2551167475775354E-01    0.1906631261846736    
    0.3188959344719192E-01    0.1918549561863659    
    0.3826751213663031E-01    0.1933100558114386    
    0.4464543082606869E-01    0.1950274778190512    
    0.5102334951550708E-01    0.1970061043982507    
    0.5740126820494546E-01    0.1992446479677298    
    0.6377918689438385E-01    0.2017416521060633    
    0.7015710558382224E-01    0.2044954926073720    
    0.7653502427326062E-01    0.2075043786602780    
    0.8291294296269899E-01    0.2107663541488842    
    0.8929086165213738E-01    0.2142792990747726    
    0.9566878034157578E-01    0.2180409310990997    
    0.1020466990310142        0.2220488072038685    
    0.1084246177204525        0.2263003254714214    
    0.1148025364098909        0.2307927269811732    
    0.1211804550993293        0.2355230978225381    
    0.1275583737887677        0.2404883712229604    
    0.1339362924782061        0.2456853297898944    
    0.1403142111676445        0.2511106078655214    
    0.1466921298570829        0.2567606939929215    
    0.1530700485465212        0.2626319334923481    
    0.1594479672359596        0.2687205311461797    
    0.1658258859253980        0.2750225539910452    
    0.1722038046148364        0.2815339342155376    
    0.1785817233042748        0.2882504721618426    
    0.1849596419937131        0.2951678394295212    
    0.1913375606831516        0.3022815820795913    
    0.1977154793725899        0.3095871239369601    
    0.2040933980620283        0.3170797699891535    
    0.2104713167514667        0.3247547098791922    
    0.2168492354409051        0.3326070214903564    
    0.2232271541303435        0.3406316746204766    
    0.2296050728197818        0.3488235347432733    
    0.2359829915092202        0.3571773668541667    
    0.2423609101986586        0.3656878393978506    
    0.2487388288880970        0.3743495282748307    
    0.2551167475775354        0.3831569209239871    
    0.2614946662669738        0.3921044204781336    
    0.2678725849564121        0.4011863499894072    
    0.2742505036458505        0.4103969567212197    
    0.2806284223352890        0.4197304165033779    
    0.2870063410247273        0.4291808381468785    
    0.2933842597141657        0.4387422679147507    
    0.2997621784036041        0.4484086940452241    
    0.3061400970930425        0.4581740513233829    
    0.3125180157824808        0.4680322256973527    
    0.3188959344719192        0.4779770589349757    
    0.3252738531613576        0.4880023533168118    
    0.3316517718507960        0.4981018763612114    
    0.3380296905402344        0.5082693655771150    
    0.3444076092296728        0.5184985332401254    
    0.3507855279191112        0.5287830711873382    
    0.3571634466085495        0.5391166556263093    
    0.3635413652979879        0.5494929519534790    
    0.3699192839874263        0.5599056195772869    
    0.3762972026768647        0.5703483167411663    
    0.3826751213663031        0.5808147053415306    
    0.3890530400557415        0.5912984557358223    
    0.3954309587451799        0.6017932515356520    
    0.4018088774346182        0.6122927943800164    
    0.4081867961240566        0.6227908086835519    
    0.4145647148134950        0.6332810463547803    
    0.4209426335029334        0.6437572914792558    
    0.4273205521923717        0.6542133649625611    
    0.4336984708818101        0.6646431291280803    
    0.4400763895712486        0.6750404922645002    
    0.4464543082606869        0.6853994131180137    
    0.4528322269501253        0.6957139053242576    
    0.4592101456395637        0.7059780417750127    
    0.4655880643290021        0.7161859589148156    
    0.4719659830184404        0.7263318609626362    
    0.4783439017078788        0.7364100240538908    
    0.4847218203973173        0.7464148002981342    
    0.4910997390867556        0.7563406217478640    
    0.4974776577761940        0.7661820042739879    
    0.5038555764656324        0.7759335513436230    
    0.5102334951550708        0.7855899576960075    
    0.5166114138445091        0.7951460129124595    
    0.5229893325339475        0.8045966048764567    
    0.5293672512233859        0.8139367231200664    
    0.5357451699128243        0.8231614620531232    
    0.5421230886022627        0.8322660240717217    
    0.5485010072917010        0.8412457225427840    
    0.5548789259811394        0.8500959846616365    
    0.5612568446705779        0.8588123541797497    
    0.5676347633600163        0.8673904939999802    
    0.5740126820494547        0.8758261886368814    
    0.5803906007388930        0.8841153465398623    
    0.5867685194283314        0.8922540022771961    
    0.5931464381177698        0.9002383185791191    
    0.5995243568072082        0.9080645882384747    
    0.6059022754966465        0.9157292358676282    
    0.6122801941860849        0.9232288195105732    
    0.6186581128755233        0.9305600321094269    
    0.6250360315649617        0.9377197028247535    
    0.6314139502544001        0.9447047982093809    
    0.6377918689438384        0.9515124232356338    
    0.6441697876332768        0.9581398221761387    
    0.6505477063227152        0.9645843793386187    
    0.6569256250121536        0.9708436196553196    
    0.6633035437015919        0.9769152091279389    
    0.6696814623910304        0.9827969551291756    
    0.6760593810804688        0.9884868065622539    
    0.6824372997699072        0.9939828538799558    
    0.6888152184593456        0.9992833289649841    
    0.6951931371487839         1.004386604873597    
    0.7015710558382223         1.009291195444752    
    0.7079489745276607         1.013995754777116    
    0.7143268932170991         1.018499076576530    
    0.7207048119065375         1.022800093376679    
    0.7270827305959758         1.026897875635885    
    0.7334606492854142         1.030791630713103    
    0.7398385679748526         1.034480701726361    
    0.7462164866642910         1.037964566296997    
    0.7525944053537293         1.041242835183199    
    0.7589723240431677         1.044315250806469    
    0.7653502427326062         1.047181685674730    
    0.7717281614220446         1.049842140705890    
    0.7781060801114830         1.052296743455788    
    0.7844839988009213         1.054545746254496    
    0.7908619174903597         1.056589524255015    
    0.7972398361797981         1.058428573398483    
    0.8036177548692365         1.060063508300031    
    0.8099956735586749         1.061495060059466    
    0.8163735922481132         1.062724074000984    
    0.8227515109375516         1.063751507346128    
    0.8291294296269900         1.064578426824200    
    0.8355073483164284         1.065206006224349    
    0.8418852670058667         1.065635523893522    
    0.8482631856953051         1.065868360184450    
    0.8546411043847435         1.065905994857804    
    0.8610190230741819         1.065750004442620    
    0.8673969417636203         1.065402059559050    
    0.8737748604530587         1.064863922207385    
    0.8801527791424971         1.064137443027344    
    0.8865306978319355         1.063224558531410    
    0.8929086165213739         1.062127288316047    
    0.8992865352108123         1.060847732254453    
    0.9056644539002506         1.059388067674470    
    0.9120423725896890         1.057750546525162    
    0.9184202912791274         1.055937492535451    
    0.9247982099685658         1.053951298368146    
    0.9311761286580041         1.051794422772538    
    0.9375540473474425         1.049469387738657    
    0.9439319660368809         1.046978775656179    
    0.9503098847263193         1.044325226480806    
    0.9566878034157577         1.041511434910892    
    0.9630657221051960         1.038540147576900    
    0.9694436407946345         1.035414160246206    
    0.9758215594840729         1.032136315045677    
    0.9821994781735113         1.028709498348132    
    0.9885773968629497         1.025136636689853    
    0.9949553155523880         1.021420694219613    
     1.001333234241826         1.017564671156992    
     1.007711152931265         1.013571600533577    
     1.014089071620703         1.009444545564357    
     1.020466990310142         1.005186597050141    
     1.026844908999580         1.000800870812219    
     1.033222827689018        0.9962905051605382    
     1.039600746378457        0.9916586583965694    
     1.045978665067895        0.9869085063519244    
     1.052356583757333        0.9820432399636831    
     1.058734502446772        0.9770660628872839    
     1.065112421136210        0.9719801891477398    
     1.071490339825649        0.9667888408298470    
     1.077868258515087        0.9614952458079606    
     1.084246177204525        0.9561026355158408    
     1.090624095893964        0.9506142427569724    
     1.097002014583402        0.9450332995557160    
     1.103379933272840        0.9393630350495495    
     1.109757851962279        0.9336066734226209    
     1.116135770651717        0.9277674318807544    
     1.122513689341156        0.9218485186680144    
     1.128891608030594        0.9158531311248750    
     1.135269526720033        0.9097844537879957    
     1.141647445409471        0.9036456565315865    
     1.148025364098909        0.8974398927502802    
     1.154403282788348        0.8911702975834360    
     1.160781201477786        0.8848399861807541    
     1.167159120167224        0.8784520520090686    
     1.173537038856663        0.8720095652001739    
     1.179914957546101        0.8655155709395311    
     1.186292876235540        0.8589730878956959    
     1.192670794924978        0.8523851066903058    
     1.199048713614416        0.8457545884084743    
     1.205426632303855        0.8390844631494334    
     1.211804550993293        0.8323776286172968    
     1.218182469682731        0.8256369487518036    
     1.224560388372170        0.8188652523989419    
     1.230938307061608        0.8120653320213520    
     1.237316225751047        0.8052399424484402    
     1.243694144440485        0.7983917996661426    
     1.250072063129923        0.7915235796463341    
     1.256449981819362        0.7846379172158496    
     1.262827900508800        0.7777374049651686    
     1.269205819198238        0.7708245921967974    
     1.275583737887677        0.7639019839134311    
     1.281961656577115        0.7569720398459967    
     1.288339575266554        0.7500371735217148    
     1.294717493955992        0.7430997513723265    
     1.301095412645430        0.7361620918826706    
     1.307473331334869        0.7292264647798267    
     1.313851250024307        0.7222950902630334    
     1.320229168713746        0.7153701382746463    
     1.326607087403184        0.7084537278123986    
     1.332985006092622        0.7015479262832434    
     1.339362924782061        0.6946547488990901    
     1.345740843471499        0.6877761581147293    
     1.352118762160938        0.6809140631082798    
     1.358496680850376        0.6740703193044780    
     1.364874599539814        0.6672467279411300    
     1.371252518229253        0.6604450356790791    
     1.377630436918691        0.6536669342559813    
     1.384008355608130        0.6469140601842287    
     1.390386274297568        0.6401879944933196    
     1.396764192987006        0.6334902625169667    
     1.403142111676445        0.6268223337252221    
     1.409520030365883        0.6201856216018549    
     1.415897949055321        0.6135814835672356    
     1.422275867744760        0.6070112209468934    
     1.428653786434198        0.6004760789859336    
     1.435031705123637        0.5939772469094334    
     1.441409623813075        0.5875158580288944    
     1.447787542502513        0.5810929898947822    
     1.454165461191952        0.5747096644952243    
     1.460543379881390        0.5683668485008672    
     1.466921298570828        0.5620654535555339    
     1.473299217260267        0.5558063366126291    
     1.479677135949705        0.5495903003170970    
     1.486055054639144        0.5434180934328527    
     1.492432973328582        0.5372904110385739    
     1.498810892018020        0.5312078943722113    
     1.505188810707459        0.5251711329477153    
     1.511566729396897        0.5191806646515519    
     1.517944648086335        0.5132369762652883    
     1.524322566775774        0.5073405041666598    
     1.530700485465212        0.5014916353448693    
     1.537078404154651        0.4956907085186717    
     1.543456322844089        0.4899380144982409    
     1.549834241533528        0.4842337957205846    
     1.556212160222966        0.4785782465890471    
     1.562590078912404        0.4729715162132880    
     1.568967997601843        0.4674137134454559    
     1.575345916291281        0.4619049124052922    
     1.581723834980719        0.4564451585148857    
     1.588101753670158        0.4510344742806259    
     1.594479672359596        0.4456728643618420    
     1.600857591049035        0.4403603174275253    
     1.607235509738473        0.4350968059188891    
     1.613613428427911        0.4298822851608296    
     1.619991347117350        0.4247166937155180    
     1.626369265806788        0.4195999544147838    
     1.632747184496226        0.4145319753144062    
     1.639125103185665        0.4095126503338583    
     1.645503021875103        0.4045418597379867    
     1.651880940564542        0.3996194706830910    
     1.658258859253980        0.3947453377674826    
     1.664636777943418        0.3899193035796140    
     1.671014696632857        0.3851411992278277    
     1.677392615322295        0.3804108448506202    
     1.683770534011733        0.3757280501075394    
     1.690148452701172        0.3710926146560183    
     1.696526371390610        0.3665043286143339    
     1.702904290080049        0.3619629730116578    
     1.709282208769487        0.3574683202240959    
     1.715660127458925        0.3530201343972823    
     1.722038046148364        0.3486181718557109    
     1.728415964837802        0.3442621814993401    
     1.734793883527241        0.3399519051877627    
     1.741171802216679        0.3356870781122471    
     1.747549720906117        0.3314674291559295    
     1.753927639595556        0.3272926812424540    
     1.760305558284994        0.3231625516733544    
     1.766683476974433        0.3190767524544420    
     1.773061395663871        0.3150349906115013    
     1.779439314353309        0.3110369684955350    
     1.785817233042748        0.3070823840778454    
     1.792195151732186        0.3031709312352027    
     1.798573070421625        0.2993023000253558    
     1.804950989111063        0.2954761769531384    
     1.811328907800501        0.2916922452274169    
     1.817706826489940        0.2879501850091195    
     1.824084745179378        0.2842496736505783    
     1.830462663868816        0.2805903859264318    
     1.836840582558255        0.2769719942562959    
     1.843218501247693        0.2733941689194414    
     1.849596419937132        0.2698565782616947    
     1.855974338626570        0.2663588888947724    
     1.862352257316008        0.2629007658882661    
     1.868730176005447        0.2594818729544793    
     1.875108094694885        0.2561018726263289    
     1.881486013384323        0.2527604264284986    
     1.887863932073762        0.2494571950420478    
     1.894241850763200        0.2461918384626646    
     1.900619769452639        0.2429640161527529    
     1.906997688142077        0.2397733871875279    
     1.913375606831515        0.2366196103953127    
     1.919753525520954        0.2335023444922022    
     1.926131444210392        0.2304212482112692    
     1.932509362899830        0.2273759804264808    
     1.938887281589269        0.2243662002714866    
     1.945265200278707        0.2213915672534441    
     1.951643118968146        0.2184517413620322    
     1.958021037657584        0.2155463831738079    
     1.964398956347023        0.2126751539520541    
     1.970776875036461        0.2098377157422655    
     1.977154793725899        0.2070337314634119    
     1.983532712415338        0.2042628649951151    
     1.989910631104776        0.2015247812608767    
     1.996288549794214        0.1988191463074841    
     2.002666468483653        0.1961456273807237    
     2.009044387173091        0.1935038929975224    
     2.015422305862530        0.1908936130146361    
     2.021800224551968        0.1883144586940044    
     2.028178143241406        0.1857661027648814    
     2.034556061930845        0.1832482194828529    
     2.040933980620283        0.1807604846858470    
     2.047311899309721        0.1783025758472368    
     2.053689817999160        0.1758741721261403    
     2.060067736688598        0.1734749544150116    
     2.066445655378037        0.1711046053846135    
     2.072823574067475        0.1687628095264684    
     2.079201492756913        0.1664492531928708    
     2.085579411446352        0.1641636246345476    
     2.091957330135790        0.1619056140360496    
     2.098335248825228        0.1596749135489495    
     2.104713167514667        0.1574712173229291    
     2.111091086204105        0.1552942215348277    
     2.117469004893544        0.1531436244157230    
     2.123846923582982        0.1510191262761162    
     2.130224842272420        0.1489204295292868    
     2.136602760961859        0.1468472387128858    
     2.142980679651297        0.1447992605088293    
     2.149358598340736        0.1427762037615507    
     2.155736517030174        0.1407777794946778    
     2.162114435719612        0.1388037009261875    
     2.168492354409051        0.1368536834820946    
     2.174870273098489        0.1349274448087310    
     2.181248191787927        0.1330247047836663    
     2.187626110477366        0.1311451855253217    
     2.194004029166804        0.1292886114013235    
     2.200381947856243        0.1274547090356497    
     2.206759866545681        0.1256432073146128    
     2.213137785235119        0.1238538373917214    
     2.219515703924558        0.1220863326914704    
     2.225893622613996        0.1203404289120974    
     2.232271541303434        0.1186158640273481    
     2.238649459992873        0.1169123782872909    
     2.245027378682312        0.1152297142182181    
     2.251405297371750        0.1135676166216742    
     2.257783216061188        0.1119258325726429    
     2.264161134750627        0.1103041114169328    
     2.270539053440065        0.1087022047677926    
     2.276916972129504        0.1071198665017926    
     2.283294890818942        0.1055568527539979    
     2.289672809508380        0.1040129219124730    
     2.296050728197819        0.1024878346121419    
     2.302428646887257        0.1009813537280320    
     2.308806565576695        0.9949324436793540E-01
     2.315184484266134        0.9802327386451021E-01
     2.321562402955572        0.9657121176684712E-01
     2.327940321645011        0.9513682983153159E-01
     2.334318240334449        0.9371990201322107E-01
     2.340696159023887        0.9232020445476252E-01
     2.347074077713326        0.9093751547687291E-01
     2.353451996402764        0.8957161556740506E-01
     2.359829915092202        0.8822228737021702E-01
     2.366207833781641        0.8688931567366859E-01
     2.372585752471079        0.8557248739876157E-01
     2.378963671160518        0.8427159158694351E-01
     2.385341589849956        0.8298641938759152E-01
     2.391719508539394        0.8171676404519519E-01
     2.398097427228833        0.8046242088625234E-01
     2.404475345918271        0.7922318730589503E-01
     2.410853264607709        0.7799886275425984E-01
     2.417231183297148        0.7678924872261675E-01
     2.423609101986586        0.7559414872927038E-01
     2.429987020676025        0.7441336830524733E-01
     2.436364939365463        0.7324671497978005E-01
     2.442742858054901        0.7209399826560098E-01
     2.449120776744340        0.7095502964405802E-01
     2.455498695433778        0.6982962255006087E-01
     2.461876614123216        0.6871759235687132E-01
     2.468254532812655        0.6761875636074366E-01
     2.474632451502093        0.6653293376542760E-01
     2.481010370191532        0.6545994566654297E-01
     2.487388288880970        0.6439961503583161E-01
     2.493766207570408        0.6335176670529881E-01
     2.500144126259847        0.6231622735125073E-01
     2.506522044949285        0.6129282547823261E-01
     2.512899963638723        0.6028139140288083E-01
     2.519277882328162        0.5928175723769268E-01
     2.525655801017600        0.5829375687471815E-01
     2.532033719707039        0.5731722596918647E-01
     2.538411638396477        0.5635200192306923E-01
     2.544789557085915        0.5539792386858659E-01
     2.551167475775354        0.5445483265166576E-01
     2.557545394464792        0.5352257081535350E-01
     2.563923313154230        0.5260098258319125E-01
     2.570301231843669        0.5168991384255741E-01
     2.576679150533107        0.5078921212798136E-01
     2.583057069222546        0.4989872660443663E-01
     2.589434987911984        0.4901830805061582E-01
     2.595812906601422        0.4814780884219359E-01
     2.602190825290861        0.4728708293508438E-01
     2.608568743980299        0.4643598584869407E-01
     2.614946662669738        0.4559437464917734E-01
     2.621324581359176        0.4476210793270114E-01
     2.627702500048614        0.4393904580871806E-01
     2.634080418738053        0.4312504988325754E-01
     2.640458337427491        0.4231998324223571E-01
     2.646836256116929        0.4152371043478999E-01
     2.653214174806368        0.4073609745664256E-01
     2.659592093495807        0.3995701173349503E-01
     2.665970012185245        0.3918632210446134E-01
     2.672347930874683        0.3842389880553786E-01
     2.678725849564122        0.3766961345311951E-01
     2.685103768253560        0.3692333902756340E-01
     2.691481686942998        0.3618494985680101E-01
     2.697859605632437        0.3545432160000676E-01
     2.704237524321875        0.3473133123132253E-01
     2.710615443011314        0.3401585702364368E-01
     2.716993361700752        0.3330777853246773E-01
     2.723371280390190        0.3260697657980949E-01
     2.729749199079629        0.3191333323818682E-01
     2.736127117769067        0.3122673181467517E-01
     2.742505036458506        0.3054705683503927E-01
     2.748882955147944        0.2987419402793984E-01
     2.755260873837382        0.2920803030921945E-01
     2.761638792526821        0.2854845376626956E-01
     2.768016711216259        0.2789535364247978E-01
     2.774394629905697        0.2724862032177318E-01
     2.780772548595136        0.2660814531322610E-01
     2.787150467284574        0.2597382123577847E-01
     2.793528385974013        0.2534554180303098E-01
     2.799906304663451        0.2472320180813517E-01
     2.806284223352889        0.2410669710877449E-01
     2.812662142042328        0.2349592461223857E-01
     2.819040060731766        0.2289078226059148E-01
     2.825417979421204        0.2229116901593471E-01
     2.831795898110643        0.2169698484576687E-01
     2.838173816800081        0.2110813070843748E-01
     2.844551735489520        0.2052450853869965E-01
     2.850929654178958        0.1994602123335798E-01
     2.857307572868396        0.1937257263701529E-01
     2.863685491557835        0.1880406752791558E-01
     2.870063410247273        0.1824041160388571E-01
     2.876441328936711        0.1768151146837380E-01
     2.882819247626150        0.1712727461666984E-01
     2.889197166315588        0.1657760943823963E-01
     2.895575085005027        0.1603242562260463E-01
     2.901953003694465        0.1549163721837863E-01
     2.908330922383903        0.1495517217312801E-01
     2.914708841073342        0.1442298880161932E-01
     2.921086759762780        0.1389509463585644E-01
     2.927464678452218        0.1337156215852805E-01
     2.933842597141657        0.1285253822524453E-01
     2.940220515831095        0.1233824660256691E-01
     2.946598434520534        0.1182898465261577E-01
     2.952976353209972        0.1132511578917905E-01
     2.959354271899410        0.1082705931420410E-01
     2.965732190588849        0.1033527896209160E-01
     2.972110109278287        0.9850271135227150E-02
     2.978488027967725        0.9372553501660113E-02
     2.984865946657164        0.8902654376428175E-02
     2.991243865346602        0.8441103123509186E-02
     2.997621784036041        0.7988421686087821E-02
     3.003999702725479        0.7545117266298955E-02
     3.010377621414917        0.7111676120464636E-02
     3.016755540104356        0.6688558402807751E-02
     3.023133458793794        0.6276193972717511E-02
     3.029511377483233        0.5874979072756150E-02
     3.035889296172671        0.5485273783140268E-02
     3.042267214862109        0.5107400160898705E-02
     3.048645133551548        0.4741640976597493E-02
     3.055023052240986        0.4388238967273263E-02
     3.061400970930425        0.4047396530226881E-02
     3.067778889619863        0.3719275788049976E-02
     3.074156808309302        0.3403998960237165E-02
     3.080534726998740        0.3101648980593070E-02
     3.086912645688178        0.2812270301882874E-02
     3.093290564377617        0.2535869829161447E-02
     3.099668483067055        0.2272417919874457E-02
     3.106046401756493        0.2021849380387052E-02
     3.112424320445932        0.1784064371846195E-02
     3.118802239135370        0.1558929107318751E-02
     3.125180157824809        0.1346276165436330E-02
     3.131558076514247        0.1145904139814835E-02
     3.137935995203685        0.9575761370894440E-03
     3.144313913893124        0.7810162093903788E-03
     3.150691832582562        0.6159018495225123E-03
     3.157069751272001        0.4618482859125948E-03
     3.163447669961439        0.3183733877063996E-03
     3.169825588650877        0.1848077134078744E-03
     3.176203507340316        0.5997543251717075E-04
     3.182581426029754         0.000000000000000    
  0  5  1  0  2.000000   #orbital l, n, z, is_polarized, population
 500    0.1568495778791618E-01     7.826793936170173     # npts, delta, cutoff
     0.000000000000000        0.8277340608414524E-01
    0.1568495778791618E-01    0.8311164132676975E-01
    0.3136991557583236E-01    0.8412955051525381E-01