<preamble>

<basis_specs>
===============================================================================
Ba                   Z=  56    Mass=  137.33        Charge= 0.17977+309
Lmxo=1 Lmxkb= 2    BasisType=split      Semic=T
L=0  Nsemic=1  Cnfigmx=6
          i=1  nzeta=1  polorb=0  (5s)  (semicore shell)
            splnorm:   0.15000    
               vcte:    40.000    
               rinn:    3.3193    
               qcoe:    0.0000    
               qyuk:    0.0000    
               qwid:   0.10000E-01
                rcs:    3.6844    
            lambdas:    1.0000    
          i=2  nzeta=2  polorb=0  (6s)  (to be polarized non-perturbatively)
            splnorm:   0.15000    
               vcte:    40.000    
               rinn:    7.6087    
               qcoe:    0.0000    
               qyuk:    0.0000    
               qwid:   0.10000E-01
                rcs:    8.4456      6.7419    
            lambdas:    1.0000      1.0000    
L=1  Nsemic=1  Cnfigmx=6
          i=1  nzeta=1  polorb=0  (5p)  (semicore shell)
            splnorm:   0.15000    
               vcte:    40.000    
               rinn:    3.8696    
               qcoe:    0.0000    
               qyuk:    0.0000    
               qwid:   0.10000E-01
                rcs:    4.2995    
            lambdas:    1.0000    
          i=2  nzeta=1  polorb=0  (6p)  (non-perturbative polarization shell)
            splnorm:   0.15000    
               vcte:    40.000    
               rinn:    7.6087    
               qcoe:    0.0000    
               qyuk:    0.0000    
               qwid:   0.10000E-01
                rcs:    8.4456    
            lambdas:    1.0000    
-------------------------------------------------------------------------------
L=0  Nkbl=2  erefs: 0.17977+309 0.17977+309
L=1  Nkbl=2  erefs: 0.17977+309 0.17977+309
L=2  Nkbl=1  erefs: 0.17977+309
===============================================================================
</basis_specs>

<pseudopotential_header>
 Ba pb nrl pcec
 ONCVPSP-4.2023-03-20Hamann's oncvpsp                        
 5s 2.00  r= 1.96/5p 6.00  r= 1.80/5d 0.00  r= 1.90/4f 0.00  r= 2.11/   5s:5p:6s:
</pseudopotential_header>
</preamble>
Ba                            # Symbol
Ba                            # Label
   56                         # Atomic number
     10.0000000000                             # Valence charge
     137.330000000        # Mass 
     89.0100936368        # Self energy 
   1   5                      # Lmax for basis, no. of nl orbitals 
   2   6                      # Lmax for projectors, no. of nl KB projectors
# PAOs:__________________________
  0  5  1  0  2.000000   #orbital l, n, z, is_polarized, population
 500    0.7383653419325463E-02     3.684443056243406     # npts, delta, cutoff
     0.000000000000000        0.3258301658600028E-01
    0.7383653419325463E-02    0.3265228816786053E-01
    0.1476730683865093E-01    0.3286169416850642E-01
    0.2215096025797639E-01    0.3321058809456207E-01
    0.2953461367730185E-01    0.3369879502320412E-01
    0.3691826709662731E-01    0.3432607049163299E-01
    0.4430192051595278E-01    0.3509210058214043E-01
    0.5168557393527824E-01    0.3599650217044024E-01
    0.5906922735460370E-01    0.3703882324454452E-01
    0.6645288077392916E-01    0.3821854328308337E-01
    0.7383653419325463E-01    0.3953507369005563E-01
    0.8122018761258010E-01    0.4098775828444020E-01
    0.8860384103190555E-01    0.4257587384340673E-01
    0.9598749445123102E-01    0.4429863069794841E-01
    0.1033711478705565        0.4615517337975381E-01
    0.1107548012898819        0.4814458131811561E-01
    0.1181384547092074        0.5026586958563440E-01
    0.1255221081285329        0.5251798969142886E-01
    0.1329057615478583        0.5489983042051142E-01
    0.1402894149671838        0.5741021871793071E-01
    0.1476730683865093        0.6004792061623020E-01
    0.1550567218058347        0.6281164220470349E-01
    0.1624403752251602        0.6570003063887840E-01
    0.1698240286444856        0.6871167518860366E-01
    0.1772076820638111        0.7184510832306146E-01
    0.1845913354831366        0.7509880683097690E-01
    0.1919749889024620        0.7847119297426315E-01
    0.1993586423217875        0.8196063567329553E-01
    0.2067422957411130        0.8556545172197939E-01
    0.2141259491604384        0.8928390703075272E-01
    0.2215096025797639        0.9311421789564386E-01
    0.2288932559990894        0.9705455229149054E-01
    0.2362769094184148        0.1011030311874197    
    0.2436605628377403        0.1052577298826869    
    0.2510442162570657        0.1095166793609745    
    0.2584278696763912        0.1138778676612617    
    0.2658115230957167        0.1183392412633939    
    0.2731951765150421        0.1228987064864943    
    0.2805788299343676        0.1275541308983932    
    0.2879624833536931        0.1323033447342782    
    0.2953461367730185        0.1371441423227991    
    0.3027297901923440        0.1420742835179108    
    0.3101134436116694        0.1470914951347684    
    0.3174970970309949        0.1521934723880541    
    0.3248807504503204        0.1573778803311456    
    0.3322644038696458        0.1626423552946147    
    0.3396480572889713        0.1679845063225831    
    0.3470317107082967        0.1734019166055379    
    0.3544153641276222        0.1788921449082658    
    0.3617990175469477        0.1844527269916375    
    0.3691826709662732        0.1900811770270393    
    0.3765663243855986        0.1957749890023200    
    0.3839499778049241        0.2015316381181976    
    0.3913336312242495        0.2073485821741365    
    0.3987172846435750        0.2132232629427941    
    0.4061009380629004        0.2191531075321869    
    0.4134845914822259        0.2251355297348375    
    0.4208682449015514        0.2311679313632004    
    0.4282518983208768        0.2372477035707720    
    0.4356355517402023        0.2433722281583463    
    0.4430192051595278        0.2495388788649550    
    0.4504028585788532        0.2557450226431154    
    0.4577865119981787        0.2619880209180504    
    0.4651701654175042        0.2682652308306678    
    0.4725538188368296        0.2745740064640868    
    0.4799374722561551        0.2809117000536150    
    0.4873211256754805        0.2872756631801316    
    0.4947047790948060        0.2936632479468723    
    0.5020884325141315        0.3000718081396913    
    0.5094720859334569        0.3064987003709111    
    0.5168557393527824        0.3129412852069536    
    0.5242393927721078        0.3193969282799362    
    0.5316230461914333        0.3258630013835210    
    0.5390066996107588        0.3323368835533046    
    0.5463903530300842        0.3388159621320873    
    0.5537740064494097        0.3452976338203834    
    0.5611576598687352        0.3517793057125707    
    0.5685413132880607        0.3582583963190933    
    0.5759249667073861        0.3647323365751497    
    0.5833086201267116        0.3711985708363191    
    0.5906922735460370        0.3776545578615785    
    0.5980759269653625        0.3840977717841744    
    0.6054595803846879        0.3905257030708210    
    0.6128432338040134        0.3969358594696738    
    0.6202268872233389        0.4033257669475389    
    0.6276105406426643        0.4096929706167571    
    0.6349941940619898        0.4160350356521925    
    0.6423778474813152        0.4223495481987191    
    0.6497615009006408        0.4286341162696040    
    0.6571451543199662        0.4348863706361277    
    0.6645288077392917        0.4411039657087723    
    0.6719124611586171        0.4472845804102601    
    0.6792961145779426        0.4534259190407084    
    0.6866797679972680        0.4595257121350876    
    0.6940634214165935        0.4655817173131821    
    0.7014470748359189        0.4715917201221482    
    0.7088307282552444        0.4775535348717523    
    0.7162143816745699        0.4834650054623321    
    0.7235980350938953        0.4893240062054214    
    0.7309816885132209        0.4951284426369822    
    0.7383653419325463        0.5008762523231031    
    0.7457489953518718        0.5065654056579728    
    0.7531326487711972        0.5121939066538747    
    0.7605163021905227        0.5177597937229180    
    0.7678999556098481        0.5232611404501298    
    0.7752836090291736        0.5286960563574985    
    0.7826672624484990        0.5340626876585022    
    0.7900509158678245        0.5393592180025844    
    0.7974345692871500        0.5445838692090077    
    0.8048182227064754        0.5497349019894582    
    0.8122018761258009        0.5548106166586910    
    0.8195855295451264        0.5598093538325155    
    0.8269691829644519        0.5647294951123260    
    0.8343528363837773        0.5695694637553507    
    0.8417364898031028        0.5743277253297654    
    0.8491201432224282        0.5790027883537642    
    0.8565037966417537        0.5835932049176403    
    0.8638874500610791        0.5880975712879196    
    0.8712711034804046        0.5925145284925271    
    0.8786547568997300        0.5968427628859934    
    0.8860384103190555        0.6010810066936173    
    0.8934220637383810        0.6052280385335419    
    0.9008057171577064        0.6092826839156817    
    0.9081893705770320        0.6132438157163863    
    0.9155730239963574        0.6171103546277772    
    0.9229566774156829        0.6208812695806598    
    0.9303403308350083        0.6245555781399361    
    0.9377239842543338        0.6281323468714383    
    0.9451076376736592        0.6316106916791305    
    0.9524912910929847        0.6349897781116446    
    0.9598749445123101        0.6382688216371334    
    0.9672585979316356        0.6414470878854436    
    0.9746422513509611        0.6445238928566853    
    0.9820259047702865        0.6474986030952596    
    0.9894095581896121        0.6503706358284727    
    0.9967932116089375        0.6531394590689353    
     1.004176865028263        0.6558045916799479    
     1.011560518447588        0.6583656034031614    
     1.018944171866914        0.6608221148478619    
     1.026327825286239        0.6631737974412790    
     1.033711478705565        0.6654203733393540    
     1.041095132124890        0.6675616152976017    
     1.048478785544216        0.6695973465015338    
     1.055862438963541        0.6715274403564818    
     1.063246092382867        0.6733518202364787    
     1.070629745802192        0.6750704591921109    
     1.078013399221518        0.6766833796172246    
     1.085397052640843        0.6781906528745700    
     1.092780706060168        0.6795923988803951    
     1.100164359479494        0.6808887856482791    
     1.107548012898819        0.6820800287924228    
     1.114931666318145        0.6831663909907802    
     1.122315319737470        0.6841481814085385    
     1.129698973156796        0.6850257550824135    
     1.137082626576121        0.6857995122665080    
     1.144466279995447        0.6864698977403501    
     1.151849933414772        0.6870374000800971    
     1.159233586834098        0.6875025508935819    
     1.166617240253423        0.6878659240204823    
     1.174000893672749        0.6881281346984328    
     1.181384547092074        0.6882898386964117    
     1.188768200511400        0.6883517314165896    
     1.196151853930725        0.6883145469659563    
     1.203535507350050        0.6881790571991344    
     1.210919160769376        0.6879460707338622    
     1.218302814188701        0.6876164319406401    
     1.225686467608027        0.6871910199081792    
     1.233070121027352        0.6866707473862745    
     1.240453774446678        0.6860565597079082    
     1.247837427866003        0.6853494336921647    
     1.255221081285329        0.6845503765299900    
     1.262604734704654        0.6836604246545136    
     1.269988388123980        0.6826806425978159    
     1.277372041543305        0.6816121218361649    
     1.284755694962630        0.6804559796255777    
     1.292139348381956        0.6792133578297193    
     1.299523001801282        0.6778854217421163    
     1.306906655220607        0.6764733589046670    
     1.314290308639932        0.6749783779244731    
     1.321673962059258        0.6734017072910232    
     1.329057615478583        0.6717445941955390    
     1.336441268897909        0.6700083033548281    
     1.343824922317234        0.6681941158305745    
     1.351208575736560        0.6663033312051674    
     1.358592229155885        0.6643372570761680    
     1.365975882575211        0.6622972160144223    
     1.373359535994536        0.6601845430058478    
     1.380743189413862        0.6580005837019293    
     1.388126842833187        0.6557466933266257    
     1.395510496252512        0.6534242356022295    
     1.402894149671838        0.6510345816958633    
     1.410277803091163        0.6485791091882126    
     1.417661456510489        0.6460592010658006    
     1.425045109929814        0.6434762447385044    
     1.432428763349140        0.6408316310833853    
     1.439812416768465        0.6381267535162078    
     1.447196070187791        0.6353630070918881    
     1.454579723607116        0.6325417876348457    
     1.461963377026442        0.6296644909002586    
     1.469347030445767        0.6267325117672334    
     1.476730683865093        0.6237472434646139    
     1.484114337284418        0.6207100768301439    
     1.491497990703744        0.6176223996036604    
     1.498881644123069        0.6144855957547842    
     1.506265297542394        0.6113010448455213    
     1.513648950961720        0.6080701214281233    
     1.521032604381045        0.6047941944784543    
     1.528416257800371        0.6014746268648823    
     1.535799911219696        0.5981127748527665    
     1.543183564639022        0.5947099876444940    
     1.550567218058347        0.5912676069548601    
     1.557950871477673        0.5877869666214315    
     1.565334524896998        0.5842693922496367    
     1.572718178316324        0.5807162008920584    
     1.580101831735649        0.5771287007613551    
     1.587485485154974        0.5735081909761833    
     1.594869138574300        0.5698559613394089    
     1.602252791993625        0.5661732921477726    
     1.609636445412951        0.5624614540320551    
     1.617020098832276        0.5587217078268508    
     1.624403752251602        0.5549553044689500    
     1.631787405670927        0.5511634849230608    
     1.639171059090253        0.5473474801338294    
     1.646554712509578        0.5435085110028900    
     1.653938365928904        0.5396477883896613    
     1.661322019348229        0.5357665131345684    
     1.668705672767555        0.5318658761032825    
     1.676089326186880        0.5279470582505824    
     1.683472979606206        0.5240112307023821    
     1.690856633025531        0.5200595548544691    
     1.698240286444856        0.5160931824864241    
     1.705623939864182        0.5121132558892180    
     1.713007593283507        0.5081209080049551    
     1.720391246702833        0.5041172625771976    
     1.727774900122158        0.5001034343104076    
     1.735158553541484        0.4960805290369085    
     1.742542206960809        0.4920496438898538    
     1.749925860380135        0.4880118674806456    
     1.757309513799460        0.4839682800794214    
     1.764693167218786        0.4799199537971273    
     1.772076820638111        0.4758679527675921    
     1.779460474057436        0.4718133333283680    
     1.786844127476762        0.4677571441990529    
     1.794227780896087        0.4637004266537787    
     1.801611434315413        0.4596442146925515    
     1.808995087734738        0.4555895352032746    
     1.816378741154064        0.4515374081222471    
     1.823762394573389        0.4474888465716164    
     1.831146047992715        0.4434448569929650    
     1.838529701412040        0.4394064392806480    
     1.845913354831366        0.4353745868943613    
     1.853297008250691        0.4313502869651962    
     1.860680661670017        0.4273345203736371    
     1.868064315089342        0.4233282618316040    
     1.875447968508668        0.4193324799405495    
     1.882831621927993        0.4153481372356763    
     1.890215275347318        0.4113761902159183    
     1.897598928766644        0.4074175893573214    
     1.904982582185969        0.4034732791104557    
     1.912366235605295        0.3995441978815669    
     1.919749889024620        0.3956312779961983    
     1.927133542443946        0.3917354456664365    
     1.934517195863271        0.3878576219726249    
     1.941900849282597        0.3839987188406732    
     1.949284502701922        0.3801596315842844    
     1.956668156121248        0.3763412956640685    
     1.964051809540573        0.3725446206115912    
     1.971435462959898        0.3687701704153329    
     1.978819116379224        0.3650181956253154    
     1.986202769798550        0.3612889395415904    
     1.993586423217875        0.3575826679462482    
     2.000970076637200        0.3538996205052227    
     2.008353730056526        0.3502400197157651    
     2.015737383475851        0.3466040747697134    
     2.023121036895177        0.3429919811360036    
     2.030504690314502        0.3394039206553048    
     2.037888343733828        0.3358400620507206    
     2.045271997153153        0.3323005613259299    
     2.052655650572479        0.3287855621270702    
     2.060039303991804        0.3252951961168324    
     2.067422957411130        0.3218295833364876    
     2.074806610830455        0.3183888325585814    
     2.082190264249780        0.3149730416316138    
     2.089573917669106        0.3115822978164092    
     2.096957571088431        0.3082166781144111    
     2.104341224507757        0.3048762495880378    
     2.111724877927082        0.3015610696732767    
     2.119108531346408        0.2982711864846770    
     2.126492184765733        0.2950066391128739    
     2.133875838185059        0.2917674579147941    
     2.141259491604384        0.2885536647967289    
     2.148643145023710        0.2853652734903915    
     2.156026798443035        0.2822022898221253    
     2.163410451862361        0.2790647119753805    
     2.170794105281686        0.2759525307466126    
     2.178177758701012        0.2728657297947594    
     2.185561412120337        0.2698042858844222    
     2.192945065539663        0.2667681691228776    
     2.200328718958988        0.2637573431910678    
     2.207712372378313        0.2607717655686836    
     2.215096025797639        0.2578113877534883    
     2.222479679216964        0.2548761554750100    
     2.229863332636290        0.2519660089027059    
     2.237246986055615        0.2490808828487251    
     2.244630639474941        0.2462207069654186    
     2.252014292894266        0.2433854059376864    
     2.259397946313592        0.2405748996702824    
     2.266781599732917        0.2377891034701946    
     2.274165253152243        0.2350279282242183    
     2.281548906571568        0.2322912805718224    
     2.288932559990894        0.2295790630734196    
     2.296316213410219        0.2268911743741484    
     2.303699866829545        0.2242275093632544    
     2.311083520248870        0.2215879593292076    
     2.318467173668195        0.2189724121106237    
     2.325850827087521        0.2163807522430902    
     2.333234480506846        0.2138128611019973    
     2.340618133926172        0.2112686170414710    
     2.348001787345497        0.2087478955294935    
     2.355385440764822        0.2062505692793134    
     2.362769094184148        0.2037765083772096    
     2.370152747603473        0.2013255804067033    
     2.377536401022799        0.1988976505693082    
     2.384920054442124        0.1964925818019060    
     2.392303707861450        0.1941102348908112    
     2.399687361280775        0.1917504685826032    
     2.407071014700101        0.1894131396918144    
     2.414454668119427        0.1870981032055467    
     2.421838321538752        0.1848052123850820    
     2.429221974958077        0.1825343188645613    
     2.436605628377403        0.1802852727468021    
     2.443989281796728        0.1780579226963236    
     2.451372935216054        0.1758521160296452    
     2.458756588635379        0.1736676988029181    
     2.466140242054705        0.1715045158969631    
     2.473523895474030        0.1693624110997646    
     2.480907548893355        0.1672412271864991    
     2.488291202312681        0.1651408059971367    
     2.495674855732006        0.1630609885116870    
     2.503058509151332        0.1610016149231316    
     2.510442162570657        0.1589625247081195    
     2.517825815989983        0.1569435566954669    
     2.525209469409308        0.1549445491325104    
     2.532593122828634        0.1529653397493661    
     2.539976776247959        0.1510057658211542    
     2.547360429667285        0.1490656642282254    
     2.554744083086610        0.1471448715144476    
     2.562127736505936        0.1452432239435937    
     2.569511389925261        0.1433605575538744    
     2.576895043344587        0.1414967082106637    
     2.584278696763912        0.1396515116574646    
     2.591662350183237        0.1378248035651498    
     2.599046003602563        0.1360164195795239    
     2.606429657021888        0.1342261953672440    
     2.613813310441214        0.1324539666601411    
     2.621196963860539        0.1306995692979855    
     2.628580617279865        0.1289628392697268    
     2.635964270699190        0.1272436127532454    
     2.643347924118516        0.1255417261536529    
     2.650731577537841        0.1238570161401876    
     2.658115230957167        0.1221893196817276    
     2.665498884376492        0.1205384740809581    
     2.672882537795818        0.1189043170072215    
     2.680266191215143        0.1172866865280967    
     2.687649844634469        0.1156854211397268    
     2.695033498053794        0.1141003597959313    
     2.702417151473119        0.1125313419361318    
     2.709800804892445        0.1109782075121253    
     2.717184458311770        0.1094407970137241    
     2.724568111731096        0.1079189514933034    
     2.731951765150421        0.1064125125892761    
     2.739335418569746        0.1049213225485232    
     2.746719071989072        0.1034452242478111    
     2.754102725408398        0.1019840612142172    
     2.761486378827723        0.1005376776445915    
     2.768870032247049        0.9910591842408012E-01
     2.776253685666374        0.9768862914373512E-01
     2.783637339085700        0.9628565611722843E-01
     2.791020992505025        0.9489684639670552E-01
     2.798404645924351        0.9352204778779190E-01
     2.805788299343676        0.9216110886378076E-01
     2.813171952763001        0.9081387897902107E-01
     2.820555606182327        0.8948020828152799E-01
     2.827939259601652        0.8815994772483784E-01
     2.835322913020978        0.8685294907912965E-01
     2.842706566440303        0.8555906494162899E-01
     2.850090219859629        0.8427814874632095E-01
     2.857473873278954        0.8301005477298797E-01
     2.864857526698279        0.8175463815558855E-01
     2.872241180117605        0.8051175489000105E-01
     2.879624833536930        0.7928126184115258E-01
     2.887008486956256        0.7806301674954408E-01
     2.894392140375581        0.7685687823719486E-01
     2.901775793794907        0.7566270581301872E-01
     2.909159447214232        0.7448035987765363E-01
     2.916543100633558        0.7330970172776252E-01
     2.923926754052883        0.7215059355981976E-01
     2.931310407472209        0.7100289847339387E-01
     2.938694060891534        0.6986648047394958E-01
     2.946077714310860        0.6874120447518224E-01
     2.953461367730185        0.6762693630089985E-01
     2.960845021149511        0.6652354268646854E-01
     2.968228674568836        0.6543089127983251E-01
     2.975612327988161        0.6434885064212900E-01
     2.982995981407487        0.6327729024790424E-01
     2.990379634826812        0.6221608048495019E-01
     2.997763288246138        0.6116509265377528E-01
     3.005146941665463        0.6012419896671861E-01
     3.012530595084789        0.5909327254672614E-01
     3.019914248504114        0.5807218742579685E-01
     3.027297901923440        0.5706081854311212E-01
     3.034681555342765        0.5605904174286412E-01
     3.042065208762091        0.5506673377179087E-01
     3.049448862181416        0.5408377227643375E-01
     3.056832515600742        0.5311003580012563E-01
     3.064216169020067        0.5214540377972375E-01
     3.071599822439393        0.5118975654209735E-01
     3.078983475858718        0.5024297530038136E-01
     3.086367129278043        0.4930494215000628E-01
     3.093750782697369        0.4837554006451738E-01
     3.101134436116694        0.4745465289118858E-01
     3.108518089536020        0.4654216534644694E-01
     3.115901742955345        0.4563796301111296E-01
     3.123285396374671        0.4474193232546936E-01
     3.130669049793996        0.4385396058416734E-01
     3.138052703213322        0.4297393593098000E-01
     3.145436356632647        0.4210174735341080E-01
     3.152820010051973        0.4123728467716371E-01
     3.160203663471298        0.4038043856048969E-01
     3.167587316890624        0.3953110048841382E-01
     3.174970970309949        0.3868916276685241E-01
     3.182354623729275        0.3785451851662690E-01
     3.189738277148600        0.3702706166738343E-01
     3.197121930567925        0.3620668695142437E-01
     3.204505583987251        0.3539328989746068E-01
     3.211889237406576        0.3458676682429171E-01
     3.219272890825902        0.3378701483441645E-01
     3.226656544245227        0.3299393180758742E-01
     3.234040197664553        0.3220741639430899E-01
     3.241423851083878        0.3142736800928760E-01
     3.248807504503203        0.3065368682484043E-01
     3.256191157922529        0.2988627376426493E-01
     3.263574811341854        0.2912503049517967E-01
     3.270958464761180        0.2836985942283314E-01
     3.278342118180506        0.2762066368339380E-01
     3.285725771599831        0.2687734713721856E-01
     3.293109425019157        0.2613981436210658E-01
     3.300493078438482        0.2540797064654191E-01
     3.307876731857808        0.2468172198292605E-01
     3.315260385277133        0.2396097506080771E-01
     3.322644038696458        0.2324563726010587E-01
     3.330027692115784        0.2253561664433501E-01
     3.337411345535109        0.2183082195383041E-01
     3.344794998954435        0.2113116260190870E-01
     3.352178652373760        0.2043654883570638E-01
     3.359562305793085        0.1974689377205475E-01
     3.366945959212411        0.1906212238732503E-01
     3.374329612631736        0.1838219122774026E-01
     3.381713266051062        0.1770711510107271E-01
     3.389096919470387        0.1703699257179086E-01
     3.396480572889713        0.1637202384046063E-01
     3.403864226309038        0.1571251858893866E-01
     3.411247879728364        0.1505889444655408E-01
     3.418631533147689        0.1441166819922933E-01
     3.426015186567015        0.1377144217036178E-01
     3.433398839986340        0.1313888792103128E-01
     3.440782493405666        0.1251472893419796E-01
     3.448166146824991        0.1189972346243222E-01
     3.455549800244317        0.1129464831141470E-01
     3.462933453663642        0.1070028402015707E-01
     3.470317107082967        0.1011740167510784E-01
     3.477700760502293        0.9546751441943720E-02
     3.485084413921618        0.8989052798381745E-02
     3.492468067340944        0.8444986388915382E-02
     3.499851720760269        0.7915187386363574E-02
     3.507235374179595        0.7400240226970154E-02
     3.514619027598920        0.6900674579325820E-02
     3.522002681018246        0.6416962408327623E-02
     3.529386334437571        0.5949516000739029E-02
     3.536769987856897        0.5498686826671258E-02
     3.544153641276222        0.5064765120080045E-02
     3.551537294695548        0.4647980070219262E-02
     3.558920948114873        0.4248500524228350E-02
     3.566304601534199        0.3866436108093918E-02
     3.573688254953524        0.3501838678560978E-02
     3.581071908372849        0.3154704021471963E-02
     3.588455561792175        0.2824973711452790E-02
     3.595839215211500        0.2512537042127810E-02
     3.603222868630826        0.2217232922166593E-02
     3.610606522050151        0.1938851605012040E-02
     3.617990175469477        0.1677136068815128E-02
     3.625373828888802        0.1431782767361024E-02
     3.632757482308128        0.1202441289245103E-02
     3.640141135727453        0.9887120932855901E-03
     3.647524789146779        0.7901406922250656E-03
     3.654908442566104        0.6062047751577647E-03
     3.662292095985430        0.4362857168706583E-03
     3.669675749404755        0.2795997693652422E-03
     3.677059402824081        0.1349956399363921E-03
     3.684443056243406         0.000000000000000    
  0  6  1  0  2.000000   #orbital l, n, z, is_polarized, population
 500    0.1692506484671416E-01     8.445607358510367     # npts, delta, cutoff
     0.000000000000000        0.1536822073345156E-01
    0.1692506484671416E-01    0.1553930364164505E-01
    0.3385012969342832E-01    0.1605273362703992E-01
    0.5077519454014248E-01    0.1690650247966891E-01
    0.6770025938685664E-01    0.1809771138781911E-01
    0.8462532423357080E-01    0.1962234424734218E-01
    0.1015503890802850        0.2147530249425807E-01
    0.1184754539269991        0.2365044287283734E-01
    0.1354005187737133        0.2614061648912388E-01
    0.1523255836204274        0.2893770862055455E-01