<preamble>

<basis_specs>
===============================================================================
Ba                   Z=  56    Mass=  137.33        Charge= 0.17977+309
Lmxo=1 Lmxkb= 2    BasisType=split      Semic=T
L=0  Nsemic=1  Cnfigmx=6
          i=1  nzeta=1  polorb=0  (5s)  (semicore shell)
            splnorm:   0.15000    
               vcte:    40.000    
               rinn:    3.5965    
               qcoe:    0.0000    
               qyuk:    0.0000    
               qwid:   0.10000E-01
                rcs:    3.9921    
            lambdas:    1.0000    
          i=2  nzeta=2  polorb=0  (6s)  (to be polarized non-perturbatively)
            splnorm:   0.15000    
               vcte:    40.000    
               rinn:    8.3762    
               qcoe:    0.0000    
               qyuk:    0.0000    
               qwid:   0.10000E-01
                rcs:    9.2976      7.2026    
            lambdas:    1.0000      1.0000    
L=1  Nsemic=1  Cnfigmx=6
          i=1  nzeta=1  polorb=0  (5p)  (semicore shell)
            splnorm:   0.15000    
               vcte:    40.000    
               rinn:    4.2391    
               qcoe:    0.0000    
               qyuk:    0.0000    
               qwid:   0.10000E-01
                rcs:    4.7054    
            lambdas:    1.0000    
          i=2  nzeta=1  polorb=0  (6p)  (non-perturbative polarization shell)
            splnorm:   0.15000    
               vcte:    40.000    
               rinn:    8.3762    
               qcoe:    0.0000    
               qyuk:    0.0000    
               qwid:   0.10000E-01
                rcs:    9.2976    
            lambdas:    1.0000    
-------------------------------------------------------------------------------
L=0  Nkbl=2  erefs: 0.17977+309 0.17977+309
L=1  Nkbl=2  erefs: 0.17977+309 0.17977+309
L=2  Nkbl=1  erefs: 0.17977+309
===============================================================================
</basis_specs>

<pseudopotential_header>
 Ba pb nrl pcec
 ONCVPSP-4.2023-03-20Hamann's oncvpsp                        
 5s 2.00  r= 1.96/5p 6.00  r= 1.80/5d 0.00  r= 1.90/4f 0.00  r= 2.11/   5s:5p:6s:
</pseudopotential_header>
</preamble>
Ba                            # Symbol
Ba                            # Label
   56                         # Atomic number
     10.0000000000                             # Valence charge
     137.330000000        # Mass 
     89.0100936368        # Self energy 
   1   5                      # Lmax for basis, no. of nl orbitals 
   2   6                      # Lmax for projectors, no. of nl KB projectors
# PAOs:__________________________
  0  5  1  0  2.000000   #orbital l, n, z, is_polarized, population
 500    0.8000285340861786E-02     3.992142385090031     # npts, delta, cutoff
     0.000000000000000        0.3213965980045065E-01
    0.8000285340861786E-02    0.3221997098374631E-01
    0.1600057068172357E-01    0.3246246130176036E-01
    0.2400085602258536E-01    0.3286645388497451E-01
    0.3200114136344714E-01    0.3343171114938248E-01
    0.4000142670430893E-01    0.3415790101395700E-01
    0.4800171204517072E-01    0.3504459712316556E-01
    0.5600199738603250E-01    0.3609127925847088E-01
    0.6400228272689429E-01    0.3729733385365685E-01
    0.7200256806775607E-01    0.3866205460305612E-01
    0.8000285340861786E-01    0.4018464315904338E-01
    0.8800313874947965E-01    0.4186420991643415E-01
    0.9600342409034143E-01    0.4369977488165468E-01
    0.1040037094312032        0.4569026862458960E-01
    0.1120039947720650        0.4783453331096137E-01
    0.1200042801129268        0.5013132381302406E-01
    0.1280045654537886        0.5257930889626326E-01
    0.1360048507946504        0.5517707247968274E-01
    0.1440051361355121        0.5792311496715800E-01
    0.1520054214763739        0.6081585464721471E-01
    0.1600057068172357        0.6385362915848068E-01
    0.1680059921580975        0.6703469701795120E-01
    0.1760062774989593        0.7035723920910462E-01
    0.1840065628398211        0.7381936082680819E-01
    0.1920068481806829        0.7741909277587289E-01
    0.2000071335215446        0.8115439352004371E-01
    0.2080074188624064        0.8502315087814759E-01
    0.2160077042032682        0.8902318386407533E-01
    0.2240079895441300        0.9315224456723917E-01
    0.2320082748849918        0.9740802007012128E-01
    0.2400085602258536        0.1017881343995219    
    0.2480088455667154        0.1062901505081157    
    0.2560091309075772        0.1109115722829422    
    0.2640094162484389        0.1156498465774812    
    0.2720097015893007        0.1205023652640030    
    0.2800099869301625        0.1254664673029363    
    0.2880102722710243        0.1305394408260551    
    0.2960105576118861        0.1357185252303572    
    0.3040108429527479        0.1410009132795919    
    0.3120111282936097        0.1463837532104849    
    0.3200114136344714        0.1518641508408078    
    0.3280116989753332        0.1574391716765511    
    0.3360119843161950        0.1631058430155754    
    0.3440122696570568        0.1688611560452402    
    0.3520125549979186        0.1747020679316388    
    0.3600128403387804        0.1806255038982100    
    0.3680131256796422        0.1866283592916334    
    0.3760134110205040        0.1927075016330617    
    0.3840136963613657        0.1988597726529014    
    0.3920139817022275        0.2050819903074936    
    0.4000142670430893        0.2113709507762132    
    0.4080145523839511        0.2177234304376524    
    0.4160148377248128        0.2241361878237187    
    0.4240151230656747        0.2306059655506253    
    0.4320154084065365        0.2371294922259150    
    0.4400156937473982        0.2437034843308096    
    0.4480159790882600        0.2503246480773196    
    0.4560162644291218        0.2569896812397138    
    0.4640165497699836        0.2636952749600653    
    0.4720168351108454        0.2704381155277574    
    0.4800171204517072        0.2772148861329392    
    0.4880174057925690        0.2840222685940615    
    0.4960176911334307        0.2908569450597370    
    0.5040179764742925        0.2977155996852778    
    0.5120182618151543        0.3045949202843719    
    0.5200185471560161        0.3114915999564438    
    0.5280188324968779        0.3184023386903421    
    0.5360191178377397        0.3253238449450575    
    0.5440194031786014        0.3322528372082535    
    0.5520196885194633        0.3391860455334326    
    0.5600199738603250        0.3461202130566162    
    0.5680202592011868        0.3530520974934452    
    0.5760205445420485        0.3599784726176260    
    0.5840208298829104        0.3668961297216630    
    0.5920211152237722        0.3738018790608252    
    0.6000214005646339        0.3806925512812610    
    0.6080216859054958        0.3875649988331875    
    0.6160219712463575        0.3944160973700152    
    0.6240222565872193        0.4012427471342564    
    0.6320225419280810        0.4080418743309825    
    0.6400228272689429        0.4148104324895714    
    0.6480231126098047        0.4215454038143830    
    0.6560233979506664        0.4282438005249366    
    0.6640236832915283        0.4349026661860825    
    0.6720239686323900        0.4415190770285580    
    0.6800242539732518        0.4480901432602196    
    0.6880245393141136        0.4546130103681446    
    0.6960248246549754        0.4610848604116815    
    0.7040251099958372        0.4675029133064093    
    0.7120253953366990        0.4738644280988695    
    0.7200256806775608        0.4801667042317898    
    0.7280259660184225        0.4864070827994196    
    0.7360262513592843        0.4925829477924729    
    0.7440265367001461        0.4986917273320529    
    0.7520268220410079        0.5047308948918235    
    0.7600271073818696        0.5106979705075674    
    0.7680273927227315        0.5165905219731768    
    0.7760276780635933        0.5224061660220031    
    0.7840279634044550        0.5281425694924002    
    0.7920282487453169        0.5337974504761964    
    0.8000285340861786        0.5393685794487483    
    0.8080288194270404        0.5448537803791380    
    0.8160291047679021        0.5502509318190101    
    0.8240293901087640        0.5555579679684787    
    0.8320296754496257        0.5607728797174693    
    0.8400299607904875        0.5658937156608074    
    0.8480302461313494        0.5709185830853537    
    0.8560305314722111        0.5758456489273871    
    0.8640308168130729        0.5806731406984966    
    0.8720311021539346        0.5853993473781361    
    0.8800313874947965        0.5900226202710662    
    0.8880316728356582        0.5945413738278269    
    0.8960319581765200        0.5989540864264662    
    0.9040322435173819        0.6032593011136890    
    0.9120325288582436        0.6074556263036610    
    0.9200328141991054        0.6115417364327005    
    0.9280330995399672        0.6155163725681164    
    0.9360333848808290        0.6193783429695056    
    0.9440336702216907        0.6231265236008521    
    0.9520339555625525        0.6267598585918138    
    0.9600342409034144        0.6302773606466399    
    0.9680345262442761        0.6336781113992183    
    0.9760348115851379        0.6369612617128164    
    0.9840350969259997        0.6401260319231358    
    0.9920353822668615        0.6431717120233923    
     1.000035667607723        0.6460976617901901    
     1.008035952948585        0.6489033108490552    
     1.016036238289447        0.6515881586785838    
     1.024036523630309        0.6541517745522417    
     1.032036808971170        0.6565937974169659    
     1.040037094312032        0.6589139357078134    
     1.048037379652894        0.6611119670980259    
     1.056037664993756        0.6631877381839818    
     1.064037950334618        0.6651411641046414    
     1.072038235675479        0.6669722280952129    
     1.080038521016341        0.6686809809749024    
     1.088038806357203        0.6702675405687522    
     1.096039091698065        0.6717320910637128    
     1.104039377038927        0.6730748822992413    
     1.112039662379788        0.6742962289928742    
     1.120039947720650        0.6753965099013816    
     1.128040233061512        0.6763761669182654    
     1.136040518402374        0.6772357041085202    
     1.144040803743235        0.6779756866817590    
     1.152041089084097        0.6785967399049597    
     1.160041374424959        0.6790995479562422    
     1.168041659765821        0.6794848527212871    
     1.176041945106683        0.6797534525341365    
     1.184042230447544        0.6799062008643081    
     1.192042515788406        0.6799440049523078    
     1.200042801129268        0.6798678243957703    
     1.208043086470130        0.6796786696886504    
     1.216043371810992        0.6793776007159851    
     1.224043657151853        0.6789657252069438    
     1.232043942492715        0.6784441971489878    
     1.240044227833577        0.6778142151660969    
     1.248044513174439        0.6770770208641549    
     1.256044798515300        0.6762338971466889    
     1.264045083856162        0.6752861665042628    
     1.272045369197024        0.6742351892809143    
     1.280045654537886        0.6730823619211233    
     1.288045939878748        0.6718291152008444    
     1.296046225219609        0.6704769124462142    
     1.304046510560471        0.6690272477435811    
     1.312046795901333        0.6674816441445387    
     1.320047081242195        0.6658416518696529    
     1.328047366583057        0.6641088465146016    
     1.336047651923918        0.6622848272624038    
     1.344047937264780        0.6603712151046961    
     1.352048222605642        0.6583696535745215    
     1.360048507946504        0.6562818016157314    
     1.368048793287366        0.6541093329730286    
     1.376049078628227        0.6518539384170907    
     1.384049363969089        0.6495173219098221    
     1.392049649309951        0.6471011989584878    
     1.400049934650813        0.6446072950038938    
     1.408050219991674        0.6420373438451853    
     1.416050505332536        0.6393930861041074    
     1.424050790673398        0.6366762677314324    
     1.432051076014260        0.6338886385580904    
     1.440051361355122        0.6310319508933754    
     1.448051646695983        0.6281079581724192    
     1.456051932036845        0.6251184136549430    
     1.464052217377707        0.6220650691771040    
     1.472052502718569        0.6189496739580649    
     1.480052788059431        0.6157739734627009    
     1.488053073400292        0.6125397083216730    
     1.496053358741154        0.6092486133098711    
     1.504053644082016        0.6059024163840426    
     1.512053929422878        0.6025028377801925    
     1.520054214763739        0.5990515891711695    
     1.528054500104601        0.5955503724738800    
     1.536054785445463        0.5920008779914330    
     1.544055070786325        0.5884047863728381    
     1.552055356127187        0.5847637671005211    
     1.560055641468048        0.5810794778041952    
     1.568055926808910        0.5773535637762710    
     1.576056212149772        0.5735876575444847    
     1.584056497490634        0.5697833785005788    
     1.592056782831495        0.5659423325836931    
     1.600057068172357        0.5620661120169608    
     1.608057353513219        0.5581562950956416    
     1.616057638854081        0.5542144460249916    
     1.624057924194943        0.5502421148059150    
     1.632058209535804        0.5462408371663351    
     1.640058494876666        0.5422121345360781    
     1.648058780217528        0.5381575140629874    
     1.656059065558390        0.5340784686678551    
     1.664059350899251        0.5299764771356991    
     1.672059636240113        0.5258530042408183    
     1.680059921580975        0.5217095009030056    
     1.688060206921837        0.5175474043722383    
     1.696060492262699        0.5133681384391274    
     1.704060777603560        0.5091731136683731    
     1.712061062944422        0.5049637276524432    
     1.720061348285284        0.5007413652825784    
     1.728061633626146        0.4965073990342097    
     1.736061918967008        0.4922631892643227    
     1.744062204307869        0.4880100845185513    
     1.752062489648731        0.4837494218452860    
     1.760062774989593        0.4794825271132155    
     1.768063060330455        0.4752107153296420    
     1.776063345671316        0.4709352909576711    
     1.784063631012178        0.4666575482295865    
     1.792063916353040        0.4623787714527242    
     1.800064201693902        0.4581002353054121    
     1.808064487034764        0.4538232051502260    
     1.816064772375625        0.4495489374100439    
     1.824065057716487        0.4452786799988925    
     1.832065343057349        0.4410136726802228    
     1.840065628398211        0.4367551472792072    
     1.848065913739072        0.4325043278376070    
     1.856066199079934        0.4282624307842257    
     1.864066484420796        0.4240306651031779    
     1.872066769761658        0.4198102324552480    
     1.880067055102520        0.4156023272783986    
     1.888067340443381        0.4114081368657683    
     1.896067625784243        0.4072288414158900    
     1.904067911125105        0.4030656140562680    
     1.912068196465967        0.3989196208402311    
     1.920068481806829        0.3947920207154059    
     1.928068767147690        0.3906839655145061    
     1.936069052488552        0.3865966012356242    
     1.944069337829414        0.3825310597697529    
     1.952069623170276        0.3784884634227396    
     1.960069908511137        0.3744699974153878    
     1.968070193851999        0.3704766503435183    
     1.976070479192861        0.3665088848205864    
     1.984070764533723        0.3625669805018379    
     1.992071049874585        0.3586512669539478    
     2.000071335215447        0.3547620478615574    
     2.008071620556308        0.3508996008284995    
     2.016071905897170        0.3470641865986657    
     2.024072191238032        0.3432560473662296    
     2.032072476578894        0.3394754073958789    
     2.040072761919756        0.3357224737272767    
     2.048073047260617        0.3319974366749874    
     2.056073332601479        0.3283004703650860    
     2.064073617942341        0.3246317332632505    
     2.072073903283203        0.3209913686843053    
     2.080074188624065        0.3173795052892207    
     2.088074473964926        0.3137962575692977    
     2.096074759305788        0.3102417263177344    
     2.104075044646650        0.3067159990888655    
     2.112075329987511        0.3032191506453725    
     2.120075615328374        0.2997512433937399    
     2.128075900669235        0.2963123278082586    
     2.136076186010097        0.2929024428438146    
     2.144076471350959        0.2895216163377654    
     2.152076756691820        0.2861698654011350    
     2.160077042032682        0.2828471967994023    
     2.168077327373544        0.2795536073231266    
     2.176077612714406        0.2762890841486510    
     2.184077898055268        0.2730536051891317    
     2.192078183396129        0.2698471394361207    
     2.200078468736991        0.2666696472919281    
     2.208078754077853        0.2635210808929997    
     2.216079039418715        0.2604013844245094    
     2.224079324759577        0.2573104944263943    
     2.232079610100438        0.2542483400910346    
     2.240079895441300        0.2512148435527758    
     2.248080180782162        0.2482099201694987    
     2.256080466123024        0.2452334787964257    
     2.264080751463886        0.2422854220523470    
     2.272081036804747        0.2393656465784561    
     2.280081322145609        0.2364740432899694    
     2.288081607486471        0.2336104976206991    
     2.296081892827333        0.2307748897607560    
     2.304082178168194        0.2279670948875397    
     2.312082463509056        0.2251869833901793    
     2.320082748849918        0.2224344210875787    
     2.328083034190780        0.2197092694402187    
     2.336083319531642        0.2170113857558670    
     2.344083604872503        0.2143406233893279    
     2.352083890213365        0.2116968319363888    
     2.360084175554227        0.2090798574220885    
     2.368084460895089        0.2064895424834351    
     2.376084746235950        0.2039257265467169    
     2.384085031576812        0.2013882459995308    
     2.392085316917674        0.1988769343576443    
     2.400085602258536        0.1963916224267980    
     2.408085887599398        0.1939321384595904    
     2.416086172940259        0.1914983083075538    
     2.424086458281121        0.1890899555685233    
     2.432086743621983        0.1867069017294141    
     2.440087028962845        0.1843489663045109    
     2.448087314303707        0.1820159669693767    
     2.456087599644568        0.1797077196904827    
     2.464087884985430        0.1774240388506561    
     2.472088170326292        0.1751647373704456    
     2.480088455667154        0.1729296268255054    
     2.488088741008015        0.1707185175600815    
     2.496089026348877        0.1685312187967039    
     2.504089311689739        0.1663675387421673    
     2.512089597030601        0.1642272846898926    
     2.520089882371463        0.1621102631187608    
     2.528090167712324        0.1600162797884962    
     2.536090453053186        0.1579451398316929    
     2.544090738394048        0.1558966478425649    
     2.552091023734910        0.1538706079624973    
     2.560091309075772        0.1518668239624892    
     2.568091594416633        0.1498850993225584    
     2.576091879757495        0.1479252373081922    
     2.584092165098357        0.1459870410439218    
     2.592092450439219        0.1440703135840894    
     2.600092735780080        0.1421748579808934    
     2.608093021120942        0.1403004773497780    
     2.616093306461804        0.1384469749322426    
     2.624093591802666        0.1366141541561434    
     2.632093877143528        0.1348018186935543    
     2.640094162484389        0.1330097725162616    
     2.648094447825251        0.1312378199489564    
     2.656094733166113        0.1294857657201937    
     2.664095018506975        0.1277534150111848    
     2.672095303847836        0.1260405735024855    
     2.680095589188698        0.1243470474186457    
     2.688095874529560        0.1226726435708846    
     2.696096159870422        0.1210171693978454    
     2.704096445211284        0.1193804330044993    
     2.712096730552145        0.1177622431992513    
     2.720097015893007        0.1161624095293058    
     2.728097301233869        0.1145807423143511    
     2.736097586574731        0.1130170526786155    
     2.744097871915593        0.1114711525813491    
     2.752098157256454        0.1099428548457849    
     2.760098442597316        0.1084319731866284    
     2.768098727938178        0.1069383222361276    
     2.776099013279040        0.1054617175687715    
     2.784099298619902        0.1040019757246618    
     2.792099583960763        0.1025589142316081    
     2.800099869301625        0.1011323516259873    
     2.808100154642487        0.9972210747241331E-01
     2.816100439983349        0.9832800238225668E-01
     2.824100725324211        0.9694985803105696E-01
     2.832101010665072        0.9558749717486545E-01
     2.840101296005934        0.9424074366555767E-01
     2.848101581346796        0.9290942246515238E-01
     2.856101866687657        0.9159335965917197E-01
     2.864102152028519        0.9029238246907857E-01
     2.872102437369381        0.8900631926382066E-01
     2.880102722710243        0.8773499957052144E-01
     2.888103008051105        0.8647825408433711E-01
     2.896103293391966        0.8523591467752009E-01
     2.904103578732828        0.8400781440771203E-01
     2.912103864073690        0.8279378752549393E-01
     2.920104149414552        0.8159366948122185E-01
     2.928104434755414        0.8040729693117439E-01
     2.936104720096275        0.7923450774303153E-01
     2.944105005437137        0.7807514100071475E-01
     2.952105290777999        0.7692903700860751E-01
     2.960105576118861        0.7579603729517687E-01
     2.968105861459723        0.7467598461602082E-01
     2.976106146800584        0.7356872295635837E-01
     2.984106432141446        0.7247409753298252E-01
     2.992106717482308        0.7139195479569552E-01
     3.000107002823170        0.7032214242824385E-01
     3.008107288164032        0.6926450934876889E-01
     3.016107573504893        0.6821890570979250E-01
     3.024107858845755        0.6718518289775162E-01
     3.032108144186617        0.6616319353209706E-01
     3.040108429527479        0.6515279146397297E-01
     3.048108714868341        0.6415383177449097E-01
     3.056109000209202        0.6316617077261147E-01
     3.064109285550064        0.6218966599264763E-01
     3.072109570890926        0.6122417619140500E-01
     3.080109856231787        0.6026956134496746E-01
     3.088110141572650        0.5932568264514434E-01
     3.096110426913511        0.5839240249559181E-01
     3.104110712254373        0.5746958450761455E-01
     3.112110997595235        0.5655709349566707E-01
     3.120111282936096        0.5565479547256191E-01
     3.128111568276958        0.5476255764439341E-01
     3.136111853617820        0.5388024840519441E-01
     3.144112138958682        0.5300773733133127E-01
     3.152112424299544        0.5214489517564923E-01
     3.160112709640405        0.5129159386137952E-01
     3.168112994981267        0.5044770647581728E-01
     3.176113280322129        0.4961310726378063E-01
     3.184113565662991        0.4878767162086079E-01
     3.192113851003853        0.4797127608647281E-01
     3.200114136344714        0.4716379833671731E-01
     3.208114421685576        0.4636511717706068E-01
     3.216114707026438        0.4557511253484583E-01
     3.224114992367300        0.4479366545163975E-01
     3.232115277708162        0.4402065807542863E-01
     3.240115563049023        0.4325597365266939E-01
     3.248115848389885        0.4249949652020401E-01
     3.256116133730747        0.4175111209704793E-01
     3.264116419071609        0.4101070687606004E-01
     3.272116704412471        0.4027816841549884E-01
     3.280116989753332        0.3955338533047839E-01
     3.288117275094194        0.3883624728432716E-01
     3.296117560435056        0.3812664497985781E-01
     3.304117845775917        0.3742447015055685E-01
     3.312118131116780        0.3672961555169878E-01
     3.320118416457641        0.3604197495139246E-01
     3.328118701798503        0.3536144312156589E-01
     3.336118987139365        0.3468791582889410E-01
     3.344119272480226        0.3402128982567885E-01
     3.352119557821089        0.3336146284068057E-01
     3.360119843161950        0.3270833356991368E-01
     3.368120128502812        0.3206180166740532E-01
     3.376120413843674        0.3142176773592305E-01
     3.384120699184535        0.3078813331767864E-01
     3.392120984525397        0.3016080088500691E-01
     3.400121269866259        0.2953967383102805E-01
     3.408121555207121        0.2892465646029331E-01
     3.416121840547983        0.2831565397941868E-01
     3.424122125888844        0.2771257248771063E-01
     3.432122411229706        0.2711531896778179E-01
     3.440122696570568        0.2652380127616605E-01
     3.448122981911430        0.2593792813392787E-01
     3.456123267252292        0.2535760911727317E-01
     3.464123552593153        0.2478275464816034E-01
     3.472123837934015        0.2421327598491360E-01
     3.480124123274877        0.2364908521284218E-01
     3.488124408615739        0.2309009523486160E-01
     3.496124693956601        0.2253621976212425E-01
     3.504124979297462        0.2198737330465494E-01
     3.512125264638324        0.2144347116199551E-01
     3.520125549979186        0.2090442941385752E-01
     3.528125835320048        0.2037016491078440E-01
     3.536126120660910        0.1984059526482435E-01
     3.544126406001771        0.1931563884021242E-01
     3.552126691342633        0.1879521474406515E-01
     3.560126976683495        0.1827924281708581E-01
     3.568127262024356        0.1776764362428247E-01
     3.576127547365219        0.1726033844569835E-01
     3.584127832706080        0.1675724926715529E-01
     3.592128118046942        0.1625829877101234E-01
     3.600128403387804        0.1576341032693663E-01
     3.608128688728665        0.1527250798269134E-01
     3.616128974069527        0.1478551645493873E-01
     3.624129259410389        0.1430236112221034E-01
     3.632129544751251        0.1382296813865703E-01
     3.640129830092113        0.1334726592162323E-01
     3.648130115432974        0.1287519172786616E-01
     3.656130400773836        0.1240670605639000E-01
     3.664130686114698        0.1194181211279785E-01
     3.672130971455560        0.1148057433526900E-01
     3.680131256796422        0.1102313129188762E-01
     3.688131542137283        0.1056970120057418E-01
     3.696131827478145        0.1012058057484599E-01
     3.704132112819007        0.9676137568006345E-02
     3.712132398159869        0.9236801807112161E-02
     3.720132683500731        0.8803052296831187E-02
     3.728132968841592        0.8375404615764253E-02
     3.736133254182454        0.7954398269891503E-02
     3.744133539523316        0.7540584767836913E-02
     3.752133824864178        0.7134516753637031E-02
     3.760134110205040        0.6736738368218326E-02
     3.768134395545901        0.6347776898138599E-02
     3.776134680886763        0.5968135696425381E-02
     3.784134966227625        0.5598288314573401E-02
     3.792135251568487        0.5238673758428090E-02
     3.800135536909349        0.4889692767468764E-02
     3.808135822250210        0.4551705012402978E-02
     3.816136107591072        0.4225027106822744E-02
     3.824136392931934        0.3909931332779873E-02
     3.832136678272795        0.3606644986027573E-02
     3.840136963613658        0.3315350253335917E-02
     3.848137248954519        0.3036184541041593E-02
     3.856137534295381        0.2769241180327895E-02
     3.864137819636243        0.2514570440273542E-02
     3.872138104977104        0.2272180784056448E-02
     3.880138390317966        0.2042040306397688E-02
     3.888138675658828        0.1824078290674624E-02
     3.896138960999690        0.1618186821008177E-02
     3.904139246340552        0.1424222376039916E-02
     3.912139531681413        0.1242007313484265E-02
     3.920139817022275        0.1071331120994482E-02
     3.928140102363137        0.9119512457511888E-03
     3.936140387703999        0.7635931935394801E-03
     3.944140673044861        0.6259493425150707E-03
     3.952140958385722        0.4986753863087758E-03
     3.960141243726584        0.3813820644318871E-03
     3.968141529067446        0.2736164643656962E-03
     3.976141814408308        0.1748163533169733E-03
     3.984142099749170        0.8417493969950682E-04
     3.992142385090031         0.000000000000000    
  0  6  1  0  2.000000   #orbital l, n, z, is_polarized, population
 500    0.1863243775842580E-01     9.297586441454474     # npts, delta, cutoff
     0.000000000000000        0.1498165517964605E-01
    0.1863243775842580E-01    0.1518384521250089E-01
    0.3726487551685160E-01    0.1579032685329222E-01
    0.5589731327527740E-01    0.1679835186129658E-01
    0.7452975103370320E-01    0.1820379249979236E-01
    0.9316218879212899E-01    0.2000094035474521E-01
    0.1117946265505548        0.2218256294811713E-01
    0.1304270643089806        0.2473996420608469E-01
    0.1490595020674064        0.2766304666043817E-01
    0.1676919398258322        0.3094037511165892E-01